Siesta Version  : trunk-755
Architecture    : unknown
Compiler version: GNU Fortran (Ubuntu 5.4.0-6ubuntu1~16.04.10) 5.4.0 20160609
Compiler flags  : mpif90 -O2 -fPIC -ftree-vectorize
PP flags        : -DFC_HAVE_ABORT -DMPI -DFC_HAVE_FLUSH -DFC_HAVE_ABORT -DGRID_DP -DPHI_GRID_SP -DSIESTA__HAS__SPGLIB  -DSIESTA__DIAG_2STAGE
Libraries       : libsiestaLAPACK.a libsiestaBLAS.a libfdict.a  /usr/lib/libscalapack-openmpi.so   libsiestaLAPACK.a libsiestaBLAS.a libfdict.a /usr/lib/libblacsF77init-openmpi.so /usr/lib/libblacsCinit-openmpi.so /usr/lib/libblacs-openmpi.so
Directory       : /home/ICN2/aakhtar/Projects/spglib-inclusion/Obj-spg/Tests/Space_Group/06-cubic-cF.31-spg225/work
PARALLEL version

* Running on 8 nodes in parallel
>> Start of run:   2-APR-2019  17:13:47

                           ***********************       
                           *  WELCOME TO SIESTA  *       
                           ***********************       

reinit: Reading from ../06-cubic-cF.31-spg225.fdf

reinit: -----------------------------------------------------------------------
reinit: System Name: 
reinit: -----------------------------------------------------------------------
reinit: System Label: 06-cubic-cF.31-spg225.inp
reinit: -----------------------------------------------------------------------

initatom: Reading input for the pseudopotentials and atomic orbitals ----------
Species number:   1 Atomic number:    1 Label: H

Ground state valence configuration:   1s01
Reading pseudopotential information in formatted form from H.psf

Valence configuration for pseudopotential generation:
1s( 1.00) rc: 1.25
2p( 0.00) rc: 1.25
3d( 0.00) rc: 1.25
4f( 0.00) rc: 1.25
For H, standard SIESTA heuristics set lmxkb to 2
 (one more than the basis l, including polarization orbitals).
Use PS.lmax or PS.KBprojectors blocks to override.

<basis_specs>
===============================================================================
H                    Z=   1    Mass=  1.0100        Charge= 0.17977+309
Lmxo=0 Lmxkb= 2    BasisType=split      Semic=F
L=0  Nsemic=0  Cnfigmx=1
          n=1  nzeta=2  polorb=1
            splnorm:   0.15000    
               vcte:    0.0000    
               rinn:    0.0000    
               qcoe:    0.0000    
               qyuk:    0.0000    
               qwid:   0.10000E-01
                rcs:    0.0000      0.0000    
            lambdas:    1.0000      1.0000    
-------------------------------------------------------------------------------
L=0  Nkbl=1  erefs: 0.17977+309
L=1  Nkbl=1  erefs: 0.17977+309
L=2  Nkbl=1  erefs: 0.17977+309
===============================================================================
</basis_specs>

atom: Called for H                     (Z =   1)

read_vps: Pseudopotential generation method:
read_vps: ATM3      Troullier-Martins                       
Total valence charge:    1.00000

xc_check: Exchange-correlation functional:
xc_check: Ceperley-Alder
V l=0 = -2*Zval/r beyond r=  1.2343
V l=1 = -2*Zval/r beyond r=  1.2189
V l=2 = -2*Zval/r beyond r=  1.2189
All V_l potentials equal beyond r=  1.2343
This should be close to max(r_c) in ps generation
All pots = -2*Zval/r beyond r=  1.2343

VLOCAL1: 99.0% of the norm of Vloc inside     28.493 Ry
VLOCAL1: 99.9% of the norm of Vloc inside     64.935 Ry
atom: Maximum radius for 4*pi*r*r*local-pseudopot. charge    1.45251
atom: Maximum radius for r*vlocal+2*Zval:    1.21892

KBgen: Kleinman-Bylander projectors: 
GHOST: No ghost state for L =  0
   l= 0   rc=  1.364359   el= -0.467325   Ekb= -2.005361   kbcos= -0.336422
GHOST: No ghost state for L =  1
   l= 1   rc=  1.434438   el=  0.001430   Ekb= -0.501708   kbcos= -0.021697
GHOST: No ghost state for L =  2
   l= 2   rc=  1.470814   el=  0.002365   Ekb= -0.190555   kbcos= -0.002281

KBgen: Total number of  Kleinman-Bylander projectors:    9
atom: -------------------------------------------------------------------------

atom: SANKEY-TYPE ORBITALS:
atom: Selected multiple-zeta basis: split     

SPLIT: Orbitals with angular momentum L= 0

SPLIT: Basis orbitals for state 1s

SPLIT: PAO cut-off radius determined from an
SPLIT: energy shift=  0.020000 Ry

   izeta = 1
                 lambda =    1.000000
                     rc =    4.828263
                 energy =   -0.449375
                kinetic =    0.929372
    potential(screened) =   -1.378747
       potential(ionic) =   -1.915047

   izeta = 2
                 rmatch =    3.854947
              splitnorm =    0.150000
                 energy =   -0.336153
                kinetic =    1.505294
    potential(screened) =   -1.841447
       potential(ionic) =   -2.413582

POLgen: Perturbative polarization orbital with L=  1

POLgen: Polarization orbital for state 1s

   izeta = 1
                     rc =    4.828263
                 energy =    0.706972
                kinetic =    1.396397
    potential(screened) =   -0.689424
       potential(ionic) =   -1.169792
atom: Total number of Sankey-type orbitals:  5

atm_pop: Valence configuration (for local Pseudopot. screening):
 1s( 1.00)                                                            
Vna: chval, zval:    1.00000   1.00000

Vna:  Cut-off radius for the neutral-atom potential:   4.828263

atom: _________________________________________________________________________

prinput: Basis input ----------------------------------------------------------

PAO.BasisType split     

%block ChemicalSpeciesLabel
    1    1 H                       # Species index, atomic number, species label
%endblock ChemicalSpeciesLabel

%block PAO.Basis                 # Define Basis set
H                     1                    # Species label, number of l-shells
 n=1   0   2 P   1                   # n, l, Nzeta, Polarization, NzetaPol
   4.828      3.855   
   1.000      1.000   
%endblock PAO.Basis

prinput: ----------------------------------------------------------------------

coor:   Atomic-coordinates input format  =     Fractional

siesta: Atomic coordinates (Bohr) and species
siesta:      2.57003   2.26767   1.66296  1        1
siesta:      1.66296   2.57003   2.26767  1        2
siesta:      4.98888   5.29124   1.66296  1        3
siesta:      4.98888   2.26767   5.89595  1        4
siesta:      9.82658  10.12894  13.45486  1        5
siesta:      2.26767   1.66296   2.57003  1        6
siesta:      1.66296   4.98888   5.29124  1        7
siesta:      5.89595   4.98888   2.26767  1        8
siesta:     13.45486   9.82658  10.12894  1        9
siesta:      2.57003   5.29124   5.89595  1       10
siesta:     12.85014  12.54779  13.45486  1       11
siesta:      5.89595   2.57003   5.29124  1       12
siesta:     12.85014  10.12894   9.22187  1       13
siesta:     10.12894   9.22187  12.85014  1       14
siesta:      9.82658  12.54779   9.22187  1       15
siesta:      5.29124   1.66296   4.98888  1       16
siesta:      2.26767   5.89595   4.98888  1       17
siesta:     10.12894  13.45486   9.82658  1       18
siesta:     13.45486  12.85014  12.54779  1       19
siesta:      5.29124   5.89595   2.57003  1       20
siesta:      9.22187  12.85014  10.12894  1       21
siesta:      9.22187   9.82658  12.54779  1       22
siesta:     12.54779  13.45486  12.85014  1       23
siesta:     12.54779   9.22187   9.82658  1       24
siesta:     12.54779  12.85014  13.45486  1       25
siesta:     13.45486  12.54779  12.85014  1       26
siesta:     10.12894   9.82658  13.45486  1       27
siesta:     10.12894  12.85014   9.22187  1       28
siesta:      5.29124   4.98888   1.66296  1       29
siesta:     12.85014  13.45486  12.54779  1       30
siesta:     13.45486  10.12894   9.82658  1       31
siesta:      9.22187  10.12894  12.85014  1       32
siesta:      1.66296   5.29124   4.98888  1       33
siesta:     12.54779   9.82658   9.22187  1       34
siesta:      2.26767   2.57003   1.66296  1       35
siesta:      9.22187  12.54779   9.82658  1       36
siesta:      2.26767   4.98888   5.89595  1       37
siesta:      4.98888   5.89595   2.26767  1       38
siesta:      5.29124   2.57003   5.89595  1       39
siesta:      9.82658  13.45486  10.12894  1       40
siesta:     12.85014   9.22187  10.12894  1       41
siesta:      4.98888   1.66296   5.29124  1       42
siesta:      1.66296   2.26767   2.57003  1       43
siesta:      9.82658   9.22187  12.54779  1       44
siesta:      5.89595   2.26767   4.98888  1       45
siesta:      5.89595   5.29124   2.57003  1       46
siesta:      2.57003   1.66296   2.26767  1       47
siesta:      2.57003   5.89595   5.29124  1       48

siesta: System type = bulk      

initatomlists: Number of atoms, orbitals, and projectors:     48   240   432

----------------------------------------------------------------------
 Output of crystal symmetries 

 Int Sp Group number =    225
 Int Sp Group symbol = Fm-3m      
 Bravais lattice is    225  Fm-3m      
 Hall number =    523

 number of symops =     48
 symops and translations in reduced coordinates = 
     1     0     0
     0     1     0
     0     0     1
    0.0000000000E+00      0.0000000000E+00      0.0000000000E+00

    -1     0     0
     0    -1     0
     0     0    -1
    0.1000000000E+01      0.1000000000E+01      0.1332267630E-14

     0     0     1
    -1     0     1
     0    -1     1
    0.1000000000E+01      0.5551115123E-15      0.1110223025E-15

     0     0    -1
     1     0    -1
     0     1    -1
    0.0000000000E+00      0.1000000000E+01      0.1110223025E-14

     0    -1     1
     0    -1     0
     1    -1     0
    0.1000000000E+01      0.4440892099E-15      0.6661338148E-15

     0     1    -1
     0     1     0
    -1     1     0
    0.5551115123E-15      0.1000000000E+01      0.5551115123E-15

     1    -1     0
     1     0    -1
     1     0     0
    0.1000000000E+01      0.1000000000E+01      0.5551115123E-15

    -1     1     0
    -1     0     1
    -1     0     0
    0.4440892099E-15      0.0000000000E+00      0.6661338148E-15

    -1     0     0
    -1     0     1
    -1     1     0
    0.4440892099E-15      0.1000000000E+01      0.6661338148E-15

     1     0     0
     1     0    -1
     1    -1     0
    0.1000000000E+01      0.5551115123E-15      0.5551115123E-15

    -1     1     0
     0     1     0
     0     1    -1
    0.1000000000E+01      0.1000000000E+01      0.1332267630E-14

     1    -1     0
     0    -1     0
     0    -1     1
    0.0000000000E+00      0.4440892099E-15      0.0000000000E+00

     0     1    -1
     1     0    -1
     0     0    -1
    0.0000000000E+00      0.0000000000E+00      0.1110223025E-14

     0    -1     1
    -1     0     1
     0     0     1
    0.1000000000E+01      0.1000000000E+01      0.1110223025E-15

     0     0    -1
     0    -1     0
    -1     0     0
    0.5551115123E-15      0.1000000000E+01      0.5551115123E-15

     0     0     1
     0     1     0
     1     0     0
    0.1000000000E+01      0.0000000000E+00      0.6661338148E-15

    -1     1     0
    -1     0     0
    -1     0     1
    0.4440892099E-15      0.0000000000E+00      0.0000000000E+00

     1    -1     0
     1     0     0
     1     0    -1
    0.1000000000E+01      0.1000000000E+01      0.1332267630E-14

    -1     0     1
     0    -1     1
     0     0     1
    0.1000000000E+01      0.1000000000E+01      0.1110223025E-15

     1     0    -1
     0     1    -1
     0     0    -1
    0.0000000000E+00      0.0000000000E+00      0.1110223025E-14

     0     0     1
     1     0     0
     0     1     0
    0.0000000000E+00      0.1000000000E+01      0.6661338148E-15

     0     0    -1
    -1     0     0
     0    -1     0
    0.1000000000E+01      0.5551115123E-15      0.5551115123E-15

     0     1     0
     0     1    -1
    -1     1     0
    0.5551115123E-15      0.1000000000E+01      0.5551115123E-15

     0    -1     0
     0    -1     1
     1    -1     0
    0.1000000000E+01      0.4440892099E-15      0.6661338148E-15

     1    -1     0
     0    -1     1
     0    -1     0
    0.0000000000E+00      0.4440892099E-15      0.6661338148E-15

    -1     1     0
     0     1    -1
     0     1     0
    0.1000000000E+01      0.1000000000E+01      0.5551115123E-15

     0    -1     0
    -1     0     0
     0     0    -1
    0.1000000000E+01      0.1000000000E+01      0.1332267630E-14

     0     1     0
     1     0     0
     0     0     1
    0.0000000000E+00      0.0000000000E+00      0.0000000000E+00

     0     0    -1
     0     1    -1
     1     0    -1
    0.1000000000E+01      0.0000000000E+00      0.1110223025E-14

     0     0     1
     0    -1     1
    -1     0     1
    0.5551115123E-15      0.1000000000E+01      0.1110223025E-15

     1     0    -1
     1     0     0
     1    -1     0
    0.1000000000E+01      0.5551115123E-15      0.5551115123E-15

    -1     0     1
    -1     0     0
    -1     1     0
    0.4440892099E-15      0.1000000000E+01      0.6661338148E-15

     0    -1     0
     1    -1     0
     0    -1     1
    0.0000000000E+00      0.4440892099E-15      0.0000000000E+00

     0     1     0
    -1     1     0
     0     1    -1
    0.1000000000E+01      0.1000000000E+01      0.1332267630E-14

     0    -1     1
     0     0     1
    -1     0     1
    0.5551115123E-15      0.1000000000E+01      0.1110223025E-15

     0     1    -1
     0     0    -1
     1     0    -1
    0.1000000000E+01      0.0000000000E+00      0.1110223025E-14

    -1     0     1
    -1     1     0
    -1     0     0
    0.4440892099E-15      0.0000000000E+00      0.6661338148E-15

     1     0    -1
     1    -1     0
     1     0     0
    0.1000000000E+01      0.1000000000E+01      0.5551115123E-15

    -1     0     0
     0     0    -1
     0    -1     0
    0.1000000000E+01      0.5551115123E-15      0.5551115123E-15

     1     0     0
     0     0     1
     0     1     0
    0.0000000000E+00      0.1000000000E+01      0.6661338148E-15

     0     1     0
     0     0     1
     1     0     0
    0.1000000000E+01      0.0000000000E+00      0.6661338148E-15

     0    -1     0
     0     0    -1
    -1     0     0
    0.5551115123E-15      0.1000000000E+01      0.5551115123E-15

     1     0     0
     1    -1     0
     1     0    -1
    0.1000000000E+01      0.1000000000E+01      0.1332267630E-14

    -1     0     0
    -1     1     0
    -1     0     1
    0.4440892099E-15      0.0000000000E+00      0.0000000000E+00

     1     0    -1
     0     0    -1
     0     1    -1
    0.0000000000E+00      0.1000000000E+01      0.1110223025E-14

    -1     0     1
     0     0     1
     0    -1     1
    0.1000000000E+01      0.5551115123E-15      0.1110223025E-15

     0     1    -1
    -1     1     0
     0     1     0
    0.1000000000E+01      0.1000000000E+01      0.5551115123E-15

     0    -1     1
     1    -1     0
     0    -1     0
    0.0000000000E+00      0.4440892099E-15      0.6661338148E-15

 symops and translations in cartesian coordinates = 
    0.1000000000E+01    0.0000000000E+00    0.0000000000E+00
    0.0000000000E+00    0.1000000000E+01    0.0000000000E+00
    0.0000000000E+00    0.0000000000E+00    0.1000000000E+01
    0.0000000000E+00      0.0000000000E+00      0.0000000000E+00

   -0.1000000000E+01    0.0000000000E+00    0.0000000000E+00
    0.0000000000E+00   -0.1000000000E+01    0.0000000000E+00
    0.0000000000E+00    0.0000000000E+00   -0.1000000000E+01
    0.7558907511E+01      0.7558907511E+01      0.1511781502E+02

    0.0000000000E+00    0.0000000000E+00   -0.1000000000E+01
    0.0000000000E+00    0.1000000000E+01    0.0000000000E+00
    0.1000000000E+01    0.0000000000E+00    0.0000000000E+00
    0.5035243896E-14      0.7558907511E+01      0.7558907511E+01

    0.0000000000E+00    0.0000000000E+00    0.1000000000E+01
    0.0000000000E+00   -0.1000000000E+01    0.0000000000E+00
   -0.1000000000E+01    0.0000000000E+00    0.0000000000E+00
    0.7558907511E+01      0.8392073160E-14      0.7558907511E+01

   -0.1000000000E+01    0.0000000000E+00    0.0000000000E+00
    0.0000000000E+00    0.1000000000E+01    0.0000000000E+00
    0.0000000000E+00    0.0000000000E+00   -0.1000000000E+01
    0.8392073160E-14      0.7558907511E+01      0.7558907511E+01

    0.1000000000E+01    0.0000000000E+00    0.0000000000E+00
    0.0000000000E+00   -0.1000000000E+01    0.0000000000E+00
    0.0000000000E+00    0.0000000000E+00    0.1000000000E+01
    0.7558907511E+01      0.8392073160E-14      0.7558907511E+01

    0.0000000000E+00    0.0000000000E+00    0.1000000000E+01
    0.0000000000E+00    0.1000000000E+01    0.0000000000E+00
   -0.1000000000E+01    0.0000000000E+00    0.0000000000E+00
    0.7558907511E+01      0.7558907511E+01      0.1511781502E+02

    0.0000000000E+00    0.0000000000E+00   -0.1000000000E+01
    0.0000000000E+00   -0.1000000000E+01    0.0000000000E+00
    0.1000000000E+01    0.0000000000E+00    0.0000000000E+00
    0.5035243896E-14      0.8392073160E-14      0.3356829264E-14

    0.1000000000E+01    0.0000000000E+00    0.0000000000E+00
    0.0000000000E+00   -0.1000000000E+01    0.0000000000E+00
    0.0000000000E+00    0.0000000000E+00   -0.1000000000E+01
    0.7558907511E+01      0.8392073160E-14      0.7558907511E+01

   -0.1000000000E+01    0.0000000000E+00    0.0000000000E+00
    0.0000000000E+00    0.1000000000E+01    0.0000000000E+00
    0.0000000000E+00    0.0000000000E+00    0.1000000000E+01
    0.8392073160E-14      0.7558907511E+01      0.7558907511E+01

    0.0000000000E+00    0.0000000000E+00    0.1000000000E+01
    0.0000000000E+00   -0.1000000000E+01    0.0000000000E+00
    0.1000000000E+01    0.0000000000E+00    0.0000000000E+00
    0.7558907511E+01      0.7558907511E+01      0.1511781502E+02

    0.0000000000E+00    0.0000000000E+00   -0.1000000000E+01
    0.0000000000E+00    0.1000000000E+01    0.0000000000E+00
   -0.1000000000E+01    0.0000000000E+00    0.0000000000E+00
    0.3356829264E-14      0.0000000000E+00      0.3356829264E-14

   -0.1000000000E+01    0.0000000000E+00    0.0000000000E+00
    0.0000000000E+00   -0.1000000000E+01    0.0000000000E+00
    0.0000000000E+00    0.0000000000E+00    0.1000000000E+01
    0.8392073160E-14      0.8392073160E-14      0.0000000000E+00

    0.1000000000E+01    0.0000000000E+00    0.0000000000E+00
    0.0000000000E+00    0.1000000000E+01    0.0000000000E+00
    0.0000000000E+00    0.0000000000E+00   -0.1000000000E+01
    0.7558907511E+01      0.7558907511E+01      0.1511781502E+02

    0.0000000000E+00    0.0000000000E+00   -0.1000000000E+01
    0.0000000000E+00   -0.1000000000E+01    0.0000000000E+00
   -0.1000000000E+01    0.0000000000E+00    0.0000000000E+00
    0.7558907511E+01      0.8392073160E-14      0.7558907511E+01

    0.0000000000E+00    0.0000000000E+00    0.1000000000E+01
    0.0000000000E+00    0.1000000000E+01    0.0000000000E+00
    0.1000000000E+01    0.0000000000E+00    0.0000000000E+00
    0.5035243896E-14      0.7558907511E+01      0.7558907511E+01

    0.0000000000E+00    0.0000000000E+00   -0.1000000000E+01
    0.1000000000E+01    0.0000000000E+00    0.0000000000E+00
    0.0000000000E+00   -0.1000000000E+01    0.0000000000E+00
    0.0000000000E+00      0.3356829264E-14      0.3356829264E-14

    0.0000000000E+00    0.0000000000E+00    0.1000000000E+01
   -0.1000000000E+01    0.0000000000E+00    0.0000000000E+00
    0.0000000000E+00    0.1000000000E+01    0.0000000000E+00
    0.7558907511E+01      0.7558907511E+01      0.1511781502E+02

    0.0000000000E+00    0.1000000000E+01    0.0000000000E+00
    0.1000000000E+01    0.0000000000E+00    0.0000000000E+00
    0.0000000000E+00    0.0000000000E+00   -0.1000000000E+01
    0.7558907511E+01      0.7558907511E+01      0.1511781502E+02

    0.0000000000E+00   -0.1000000000E+01    0.0000000000E+00
   -0.1000000000E+01    0.0000000000E+00    0.0000000000E+00
    0.0000000000E+00    0.0000000000E+00    0.1000000000E+01
    0.8392073160E-14      0.8392073160E-14      0.0000000000E+00

    0.0000000000E+00    0.0000000000E+00    0.1000000000E+01
    0.1000000000E+01    0.0000000000E+00    0.0000000000E+00
    0.0000000000E+00    0.1000000000E+01    0.0000000000E+00
    0.7558907511E+01      0.5035243896E-14      0.7558907511E+01

    0.0000000000E+00    0.0000000000E+00   -0.1000000000E+01
   -0.1000000000E+01    0.0000000000E+00    0.0000000000E+00
    0.0000000000E+00   -0.1000000000E+01    0.0000000000E+00
    0.8392073160E-14      0.7558907511E+01      0.7558907511E+01

    0.0000000000E+00   -0.1000000000E+01    0.0000000000E+00
    0.1000000000E+01    0.0000000000E+00    0.0000000000E+00
    0.0000000000E+00    0.0000000000E+00    0.1000000000E+01
    0.7558907511E+01      0.8392073160E-14      0.7558907511E+01

    0.0000000000E+00    0.1000000000E+01    0.0000000000E+00
   -0.1000000000E+01    0.0000000000E+00    0.0000000000E+00
    0.0000000000E+00    0.0000000000E+00   -0.1000000000E+01
    0.8392073160E-14      0.7558907511E+01      0.7558907511E+01

    0.0000000000E+00    0.0000000000E+00   -0.1000000000E+01
   -0.1000000000E+01    0.0000000000E+00    0.0000000000E+00
    0.0000000000E+00    0.1000000000E+01    0.0000000000E+00
    0.8392073160E-14      0.5035243896E-14      0.3356829264E-14

    0.0000000000E+00    0.0000000000E+00    0.1000000000E+01
    0.1000000000E+01    0.0000000000E+00    0.0000000000E+00
    0.0000000000E+00   -0.1000000000E+01    0.0000000000E+00
    0.7558907511E+01      0.7558907511E+01      0.1511781502E+02

    0.0000000000E+00   -0.1000000000E+01    0.0000000000E+00
   -0.1000000000E+01    0.0000000000E+00    0.0000000000E+00
    0.0000000000E+00    0.0000000000E+00   -0.1000000000E+01
    0.7558907511E+01      0.7558907511E+01      0.1511781502E+02

    0.0000000000E+00    0.1000000000E+01    0.0000000000E+00
    0.1000000000E+01    0.0000000000E+00    0.0000000000E+00
    0.0000000000E+00    0.0000000000E+00    0.1000000000E+01
    0.0000000000E+00      0.0000000000E+00      0.0000000000E+00

    0.0000000000E+00    0.0000000000E+00    0.1000000000E+01
   -0.1000000000E+01    0.0000000000E+00    0.0000000000E+00
    0.0000000000E+00   -0.1000000000E+01    0.0000000000E+00
    0.8392073160E-14      0.7558907511E+01      0.7558907511E+01

    0.0000000000E+00    0.0000000000E+00   -0.1000000000E+01
    0.1000000000E+01    0.0000000000E+00    0.0000000000E+00
    0.0000000000E+00    0.1000000000E+01    0.0000000000E+00
    0.7558907511E+01      0.5035243896E-14      0.7558907511E+01

    0.0000000000E+00    0.1000000000E+01    0.0000000000E+00
   -0.1000000000E+01    0.0000000000E+00    0.0000000000E+00
    0.0000000000E+00    0.0000000000E+00    0.1000000000E+01
    0.8392073160E-14      0.7558907511E+01      0.7558907511E+01

    0.0000000000E+00   -0.1000000000E+01    0.0000000000E+00
    0.1000000000E+01    0.0000000000E+00    0.0000000000E+00
    0.0000000000E+00    0.0000000000E+00   -0.1000000000E+01
    0.7558907511E+01      0.8392073160E-14      0.7558907511E+01

    0.0000000000E+00    0.1000000000E+01    0.0000000000E+00
    0.0000000000E+00    0.0000000000E+00   -0.1000000000E+01
   -0.1000000000E+01    0.0000000000E+00    0.0000000000E+00
    0.3356829264E-14      0.0000000000E+00      0.3356829264E-14

    0.0000000000E+00   -0.1000000000E+01    0.0000000000E+00
    0.0000000000E+00    0.0000000000E+00    0.1000000000E+01
    0.1000000000E+01    0.0000000000E+00    0.0000000000E+00
    0.7558907511E+01      0.7558907511E+01      0.1511781502E+02

    0.1000000000E+01    0.0000000000E+00    0.0000000000E+00
    0.0000000000E+00    0.0000000000E+00   -0.1000000000E+01
    0.0000000000E+00    0.1000000000E+01    0.0000000000E+00
    0.7558907511E+01      0.5035243896E-14      0.7558907511E+01

   -0.1000000000E+01    0.0000000000E+00    0.0000000000E+00
    0.0000000000E+00    0.0000000000E+00    0.1000000000E+01
    0.0000000000E+00   -0.1000000000E+01    0.0000000000E+00
    0.8392073160E-14      0.7558907511E+01      0.7558907511E+01

    0.0000000000E+00   -0.1000000000E+01    0.0000000000E+00
    0.0000000000E+00    0.0000000000E+00   -0.1000000000E+01
    0.1000000000E+01    0.0000000000E+00    0.0000000000E+00
    0.5035243896E-14      0.8392073160E-14      0.3356829264E-14

    0.0000000000E+00    0.1000000000E+01    0.0000000000E+00
    0.0000000000E+00    0.0000000000E+00    0.1000000000E+01
   -0.1000000000E+01    0.0000000000E+00    0.0000000000E+00
    0.7558907511E+01      0.7558907511E+01      0.1511781502E+02

   -0.1000000000E+01    0.0000000000E+00    0.0000000000E+00
    0.0000000000E+00    0.0000000000E+00   -0.1000000000E+01
    0.0000000000E+00   -0.1000000000E+01    0.0000000000E+00
    0.8392073160E-14      0.7558907511E+01      0.7558907511E+01

    0.1000000000E+01    0.0000000000E+00    0.0000000000E+00
    0.0000000000E+00    0.0000000000E+00    0.1000000000E+01
    0.0000000000E+00    0.1000000000E+01    0.0000000000E+00
    0.7558907511E+01      0.5035243896E-14      0.7558907511E+01

    0.0000000000E+00    0.1000000000E+01    0.0000000000E+00
    0.0000000000E+00    0.0000000000E+00    0.1000000000E+01
    0.1000000000E+01    0.0000000000E+00    0.0000000000E+00
    0.5035243896E-14      0.7558907511E+01      0.7558907511E+01

    0.0000000000E+00   -0.1000000000E+01    0.0000000000E+00
    0.0000000000E+00    0.0000000000E+00   -0.1000000000E+01
   -0.1000000000E+01    0.0000000000E+00    0.0000000000E+00
    0.7558907511E+01      0.8392073160E-14      0.7558907511E+01

   -0.1000000000E+01    0.0000000000E+00    0.0000000000E+00
    0.0000000000E+00    0.0000000000E+00    0.1000000000E+01
    0.0000000000E+00    0.1000000000E+01    0.0000000000E+00
    0.7558907511E+01      0.7558907511E+01      0.1511781502E+02

    0.1000000000E+01    0.0000000000E+00    0.0000000000E+00
    0.0000000000E+00    0.0000000000E+00   -0.1000000000E+01
    0.0000000000E+00   -0.1000000000E+01    0.0000000000E+00
    0.0000000000E+00      0.3356829264E-14      0.3356829264E-14

    0.0000000000E+00   -0.1000000000E+01    0.0000000000E+00
    0.0000000000E+00    0.0000000000E+00    0.1000000000E+01
   -0.1000000000E+01    0.0000000000E+00    0.0000000000E+00
    0.7558907511E+01      0.8392073160E-14      0.7558907511E+01

    0.0000000000E+00    0.1000000000E+01    0.0000000000E+00
    0.0000000000E+00    0.0000000000E+00   -0.1000000000E+01
    0.1000000000E+01    0.0000000000E+00    0.0000000000E+00
    0.5035243896E-14      0.7558907511E+01      0.7558907511E+01

    0.1000000000E+01    0.0000000000E+00    0.0000000000E+00
    0.0000000000E+00    0.0000000000E+00    0.1000000000E+01
    0.0000000000E+00   -0.1000000000E+01    0.0000000000E+00
    0.7558907511E+01      0.7558907511E+01      0.1511781502E+02

   -0.1000000000E+01    0.0000000000E+00    0.0000000000E+00
    0.0000000000E+00    0.0000000000E+00   -0.1000000000E+01
    0.0000000000E+00    0.1000000000E+01    0.0000000000E+00
    0.8392073160E-14      0.5035243896E-14      0.3356829264E-14

----------------------------------------------------------------------


siesta: ******************** Simulation parameters ****************************
siesta:
siesta: The following are some of the parameters of the simulation.
siesta: A complete list of the parameters used, including default values,
siesta: can be found in file out.fdf
siesta:
redata: Spin configuration                          = none
redata: Number of spin components                   = 1
redata: Time-Reversal Symmetry                      = T
redata: Spin-spiral                                 = F
redata: Long output                                 =   F
redata: Number of Atomic Species                    =        1
redata: Charge density info will appear in .RHO file
redata: Write Mulliken Pop.                         = NO
redata: Matel table size (NRTAB)                    =     1024
redata: Mesh Cutoff                                 =   300.0000 Ry
redata: Net charge of the system                    =     0.0000 |e|
redata: Min. number of SCF Iter                     =        0
redata: Max. number of SCF Iter                     =        0
redata: SCF mix quantity                            = Hamiltonian
redata: Mix DM or H after convergence               =   F
redata: Recompute H after scf cycle                 =   F
redata: Mix DM in first SCF step                    =   T
redata: Write Pulay info on disk                    =   F
redata: New DM Mixing Weight                        =     0.2500
redata: New DM Occupancy tolerance                  = 0.000000000001
redata: No kicks to SCF
redata: DM Mixing Weight for Kicks                  =     0.5000
redata: Require Harris convergence for SCF          =   F
redata: Harris energy tolerance for SCF             =     0.000100 eV
redata: Require DM convergence for SCF              =   T
redata: DM tolerance for SCF                        =     0.000100
redata: Require EDM convergence for SCF             =   F
redata: EDM tolerance for SCF                       =     0.001000 eV
redata: Require H convergence for SCF               =   T
redata: Hamiltonian tolerance for SCF               =     0.001000 eV
redata: Require (free) Energy convergence for SCF   =   F
redata: (free) Energy tolerance for SCF             =     0.000100 eV
redata: Using Saved Data (generic)                  =   F
redata: Use continuation files for DM               =   F
redata: Neglect nonoverlap interactions             =   F
redata: Method of Calculation                       = Diagonalization
redata: Electronic Temperature                      =   299.9869 K
redata: Fix the spin of the system                  =   F
redata: Max. number of TDED Iter                    =        1
redata: Number of TDED substeps                     =        3
redata: Dynamics option                             = Single-point calculation
mix.SCF: Pulay mixing                            = Pulay
mix.SCF:    Variant                              = stable
mix.SCF:    History steps                        = 2
mix.SCF:    Linear mixing weight                 =     0.250000
mix.SCF:    Mixing weight                        =     0.250000
mix.SCF:    SVD condition                        = 0.1000E-07
redata: ***********************************************************************

%block SCF.Mixers
  Pulay
%endblock SCF.Mixers

%block SCF.Mixer.Pulay
  # Mixing method
  method pulay
  variant stable

  # Mixing options
  weight 0.2500
  weight.linear 0.2500
  history 2
%endblock SCF.Mixer.Pulay

DM_history_depth set to one: no extrapolation allowed by default for geometry relaxation
Size of DM history Fstack: 1
Total number of electrons:    48.000000
Total ionic charge:    48.000000

* ProcessorY, Blocksize:    2  24


* Orbital distribution balance (max,min):    48    24


siesta: k-grid: Number of k-points =         1
siesta: k-point is Gamma-only

diag: Algorithm                                     = D&C
diag: Parallel over k                               =   F
diag: Use parallel 2D distribution                  =   T
diag: Parallel block-size                           = 24
diag: Parallel distribution                         =     2 x     4
diag: Used triangular part                          = Lower
diag: Absolute tolerance                            =  0.100E-15
diag: Orthogonalization factor                      =  0.100E-05
diag: Memory factor                                 =  1.0000


ts: **************************************************************
ts: Save H and S matrices                           =    F
ts: Save DM and EDM matrices                        =    F
ts: Fix Hartree potential                           =    F
ts: Only save the overlap matrix S                  =    F
ts: **************************************************************

************************ Begin: TS CHECKS AND WARNINGS ************************
************************ End: TS CHECKS AND WARNINGS **************************


                     ====================================
                        Single-point calculation
                     ====================================

outcell: Unit cell vectors (Ang):
        0.000000    4.000000    4.000000
        4.000000    0.000000    4.000000
        4.000000    4.000000    0.000000

outcell: Cell vector modules (Ang)   :    5.656854    5.656854    5.656854
outcell: Cell angles (23,13,12) (deg):     60.0000     60.0000     60.0000
outcell: Cell volume (Ang**3)        :    128.0000
siesta: WARNING: Atoms     1    35 too close: rij =    0.226274 Ang
siesta: WARNING: Atoms     2    43 too close: rij =    0.226274 Ang
siesta: WARNING: Atoms     3    29 too close: rij =    0.226274 Ang
siesta: WARNING: Atoms     4    39 too close: rij =    0.226274 Ang
siesta: WARNING: Atoms     5    27 too close: rij =    0.226274 Ang
siesta: WARNING: Atoms     6    47 too close: rij =    0.226274 Ang
siesta: WARNING: Atoms     7    33 too close: rij =    0.226274 Ang
siesta: WARNING: Atoms     8    46 too close: rij =    0.226274 Ang
siesta: WARNING: Atoms     9    31 too close: rij =    0.226274 Ang
siesta: WARNING: Atoms    10    37 too close: rij =    0.226274 Ang
siesta: WARNING: Atoms    11    25 too close: rij =    0.226274 Ang
siesta: WARNING: Atoms    12    45 too close: rij =    0.226274 Ang
siesta: WARNING: Atoms    13    34 too close: rij =    0.226274 Ang
siesta: WARNING: Atoms    14    44 too close: rij =    0.226274 Ang
siesta: WARNING: Atoms    15    28 too close: rij =    0.226274 Ang
siesta: WARNING: Atoms    16    42 too close: rij =    0.226274 Ang
siesta: WARNING: Atoms    17    48 too close: rij =    0.226274 Ang
siesta: WARNING: Atoms    18    40 too close: rij =    0.226274 Ang
siesta: WARNING: Atoms    19    26 too close: rij =    0.226274 Ang
siesta: WARNING: Atoms    20    38 too close: rij =    0.226274 Ang
siesta: WARNING: Atoms    21    36 too close: rij =    0.226274 Ang
siesta: WARNING: Atoms    22    32 too close: rij =    0.226274 Ang
siesta: WARNING: Atoms    23    30 too close: rij =    0.226274 Ang
siesta: WARNING: Atoms    24    41 too close: rij =    0.226274 Ang
Gamma-point calculation with interaction between periodic images
Some features might not work optimally:
e.g. DM initialization from atomic data
<dSpData1D:S at geom step 0
  <sparsity:sparsity for geom step 0
    nrows_g=240 nrows=48 sparsity=.2000 nnzs=11520, refcount: 7>
  <dData1D:(new from dSpData1D) n=11520, refcount: 1>
refcount: 1>
new_DM -- step:     1
Initializing Density Matrix...
DM filled with atomic data:
<dSpData2D:DM initialized from atoms
  <sparsity:sparsity for geom step 0
    nrows_g=240 nrows=48 sparsity=.2000 nnzs=11520, refcount: 8>
  <dData2D:DM n=11520 m=1, refcount: 1>
refcount: 1>
No. of atoms with KB's overlaping orbs in proc 0. Max # of overlaps:      48     300
New grid distribution:   1
           1       1:   25    1:   13    1:    7
           2       1:   25    1:   13    8:   13
           3       1:   25    1:   13   14:   19
           4       1:   25    1:   13   20:   25
           5       1:   25   14:   25    1:    7
           6       1:   25   14:   25    8:   13
           7       1:   25   14:   25   14:   19
           8       1:   25   14:   25   20:   25

InitMesh: MESH =    50 x    50 x    50 =      125000
InitMesh: (bp) =    25 x    25 x    25 =       15625
InitMesh: Mesh cutoff (required, used) =   300.000   323.879 Ry
ExtMesh (bp) on 0 =    81 x    69 x    63 =      352107
New grid distribution:   2
           1       1:   13   14:   25   13:   25
           2      13:   25    1:   12    1:   12
           3      13:   25    1:   13   13:   25
           4       1:   12   13:   25    1:   12
           5       1:   12    1:   13   13:   25
           6      13:   25   13:   25    1:   12
           7      14:   25   14:   25   13:   25
           8       1:   12    1:   12    1:   12
New grid distribution:   3
           1      13:   25   13:   25    1:   12
           2      13:   25    1:   12    1:   12
           3      13:   25    1:   12   13:   25
           4       1:   12    1:   12   13:   25
           5       1:   12   13:   25    1:   12
           6       1:   12    1:   12    1:   12
           7       1:   13   13:   25   13:   25
           8      14:   25   13:   25   13:   25
Setting up quadratic distribution...
ExtMesh (bp) on 0 =    69 x    68 x    69 =      323748
PhiOnMesh: Number of (b)points on node 0 =                 2028
PhiOnMesh: nlist on node 0 =               258824
SCF_NOT_CONV: SCF did not converge  in maximum number of steps.
Geom step, scf iteration, dmax:    0     0     0.000000

Using DM_out to compute the final energy and forces
No. of atoms with KB's overlaping orbs in proc 0. Max # of overlaps:      48     300

siesta: E_KS(eV) =              132.3059
change in fa due to symmetrization =    -0.24868995751603506505E-13   -0.26556534749033744447E-12   -0.20650148258027911652E-12
change in fa due to symmetrization =     0.30198066269804257900E-13    0.26467716907063731924E-12    0.20383694732117874082E-12
change in fa due to symmetrization =     0.10746958878371515311E-12    0.18651746813702629879E-12   -0.11191048088221577927E-12
change in fa due to symmetrization =    -0.12745360322696797084E-12   -0.82600593032111646608E-13    0.95035090907913399860E-13
change in fa due to symmetrization =     0.43520742565306136385E-13   -0.23536728122053318657E-12    0.17674750552032492124E-12
change in fa due to symmetrization =    -0.11191048088221577927E-12    0.15631940186722204089E-12   -0.22248869413488137070E-12
change in fa due to symmetrization =    -0.24868995751603506505E-13   -0.26556534749033744447E-12   -0.20650148258027911652E-12
change in fa due to symmetrization =     0.30198066269804257900E-13    0.26467716907063731924E-12    0.20383694732117874082E-12
change in fa due to symmetrization =     0.10746958878371515311E-12    0.18651746813702629879E-12   -0.11191048088221577927E-12
change in fa due to symmetrization =    -0.12745360322696797084E-12   -0.82600593032111646608E-13    0.95035090907913399860E-13
change in fa due to symmetrization =     0.43520742565306136385E-13   -0.23536728122053318657E-12    0.17674750552032492124E-12
change in fa due to symmetrization =    -0.11191048088221577927E-12    0.15631940186722204089E-12   -0.22248869413488137070E-12
change in fa due to symmetrization =    -0.14166445794216997456E-12    0.14388490399142028764E-12    0.72830630415410269052E-13
change in fa due to symmetrization =    -0.24868995751603506505E-13   -0.26556534749033744447E-12   -0.20650148258027911652E-12
change in fa due to symmetrization =     0.30198066269804257900E-13    0.26467716907063731924E-12    0.20383694732117874082E-12
change in fa due to symmetrization =     0.10746958878371515311E-12    0.18651746813702629879E-12   -0.11191048088221577927E-12
change in fa due to symmetrization =    -0.12745360322696797084E-12   -0.82600593032111646608E-13    0.95035090907913399860E-13
change in fa due to symmetrization =     0.43520742565306136385E-13   -0.23536728122053318657E-12    0.17674750552032492124E-12
change in fa due to symmetrization =    -0.11191048088221577927E-12    0.15631940186722204089E-12   -0.22248869413488137070E-12
change in fa due to symmetrization =    -0.14166445794216997456E-12    0.14388490399142028764E-12    0.72830630415410269052E-13
change in fa due to symmetrization =    -0.24868995751603506505E-13   -0.26556534749033744447E-12   -0.20650148258027911652E-12
change in fa due to symmetrization =     0.30198066269804257900E-13    0.26467716907063731924E-12    0.20383694732117874082E-12
change in fa due to symmetrization =     0.10746958878371515311E-12    0.18651746813702629879E-12   -0.11191048088221577927E-12
change in fa due to symmetrization =    -0.12745360322696797084E-12   -0.82600593032111646608E-13    0.95035090907913399860E-13
change in fa due to symmetrization =     0.43520742565306136385E-13   -0.23536728122053318657E-12    0.17674750552032492124E-12
change in fa due to symmetrization =    -0.11191048088221577927E-12    0.15631940186722204089E-12   -0.22248869413488137070E-12
change in fa due to symmetrization =    -0.24868995751603506505E-13   -0.26556534749033744447E-12   -0.20650148258027911652E-12
change in fa due to symmetrization =     0.30198066269804257900E-13    0.26467716907063731924E-12    0.20383694732117874082E-12
change in fa due to symmetrization =     0.10746958878371515311E-12    0.18651746813702629879E-12   -0.11191048088221577927E-12
change in fa due to symmetrization =    -0.12745360322696797084E-12   -0.82600593032111646608E-13    0.95035090907913399860E-13
change in fa due to symmetrization =     0.43520742565306136385E-13   -0.23536728122053318657E-12    0.17674750552032492124E-12
change in fa due to symmetrization =    -0.24868995751603506505E-13   -0.26556534749033744447E-12   -0.20650148258027911652E-12
change in fa due to symmetrization =    -0.24868995751603506505E-13   -0.26556534749033744447E-12   -0.20650148258027911652E-12
change in fa due to symmetrization =     0.30198066269804257900E-13    0.26467716907063731924E-12    0.20383694732117874082E-12
change in fa due to symmetrization =     0.10746958878371515311E-12    0.18651746813702629879E-12   -0.11191048088221577927E-12
change in fa due to symmetrization =    -0.12745360322696797084E-12   -0.82600593032111646608E-13    0.95035090907913399860E-13
change in fa due to symmetrization =     0.43520742565306136385E-13   -0.23536728122053318657E-12    0.17674750552032492124E-12
change in fa due to symmetrization =    -0.11191048088221577927E-12    0.15631940186722204089E-12   -0.22248869413488137070E-12
change in fa due to symmetrization =    -0.14166445794216997456E-12    0.14388490399142028764E-12    0.72830630415410269052E-13
change in fa due to symmetrization =    -0.14166445794216997456E-12    0.14388490399142028764E-12    0.72830630415410269052E-13
change in fa due to symmetrization =     0.15054624213917122688E-12   -0.13944401189291966148E-12   -0.78159700933611020446E-13
change in fa due to symmetrization =    -0.53290705182007513940E-13    0.26378899065093719400E-12    0.21893598045608086977E-12
change in fa due to symmetrization =     0.15054624213917122688E-12   -0.13944401189291966148E-12   -0.78159700933611020446E-13
change in fa due to symmetrization =    -0.53290705182007513940E-13    0.26378899065093719400E-12    0.21893598045608086977E-12
change in fa due to symmetrization =     0.95923269327613525093E-13   -0.14388490399142028764E-12   -0.24114044094858400058E-12
change in fa due to symmetrization =     0.15054624213917122688E-12   -0.13944401189291966148E-12   -0.78159700933611020446E-13
change in fa due to symmetrization =    -0.53290705182007513940E-13    0.26378899065093719400E-12    0.21893598045608086977E-12
change in fa due to symmetrization =     0.95923269327613525093E-13   -0.14388490399142028764E-12   -0.24114044094858400058E-12
change in fa due to symmetrization =     0.15054624213917122688E-12   -0.13944401189291966148E-12   -0.78159700933611020446E-13
change in fa due to symmetrization =    -0.53290705182007513940E-13    0.26378899065093719400E-12    0.21893598045608086977E-12
change in fa due to symmetrization =     0.95923269327613525093E-13   -0.14388490399142028764E-12   -0.24114044094858400058E-12
change in fa due to symmetrization =     0.10214051826551440172E-12   -0.11546319456101628020E-12    0.13766765505351941101E-12
change in fa due to symmetrization =    -0.17053025658242404461E-12    0.12434497875801753253E-12   -0.11191048088221577927E-12
change in fa due to symmetrization =    -0.14166445794216997456E-12    0.14388490399142028764E-12    0.72830630415410269052E-13
change in fa due to symmetrization =     0.15054624213917122688E-12   -0.13944401189291966148E-12   -0.78159700933611020446E-13
change in fa due to symmetrization =    -0.53290705182007513940E-13    0.26378899065093719400E-12    0.21893598045608086977E-12
change in fa due to symmetrization =     0.95923269327613525093E-13   -0.14388490399142028764E-12   -0.24114044094858400058E-12
change in fa due to symmetrization =     0.10214051826551440172E-12   -0.11546319456101628020E-12    0.13766765505351941101E-12
change in fa due to symmetrization =    -0.17053025658242404461E-12    0.12434497875801753253E-12   -0.11191048088221577927E-12
change in fa due to symmetrization =    -0.11191048088221577927E-12    0.15631940186722204089E-12   -0.22248869413488137070E-12
change in fa due to symmetrization =    -0.14166445794216997456E-12    0.14388490399142028764E-12    0.72830630415410269052E-13
change in fa due to symmetrization =     0.15054624213917122688E-12   -0.13944401189291966148E-12   -0.78159700933611020446E-13
change in fa due to symmetrization =    -0.53290705182007513940E-13    0.26378899065093719400E-12    0.21893598045608086977E-12
change in fa due to symmetrization =     0.95923269327613525093E-13   -0.14388490399142028764E-12   -0.24114044094858400058E-12
change in fa due to symmetrization =     0.73718808835110394284E-13    0.21849189124623080716E-12   -0.19673151996357773896E-12
change in fa due to symmetrization =    -0.29309887850104132667E-13   -0.25401902803423581645E-12    0.23003821070233243518E-12
change in fa due to symmetrization =    -0.14077627952246984933E-12   -0.92370555648813024163E-13   -0.12434497875801753253E-12
change in fa due to symmetrization =     0.14876988529977097642E-12    0.63060667798708891496E-13    0.15898393712632241659E-12
change in fa due to symmetrization =     0.30198066269804257900E-13    0.26467716907063731924E-12    0.20383694732117874082E-12
change in fa due to symmetrization =     0.10746958878371515311E-12    0.18651746813702629879E-12   -0.11191048088221577927E-12
change in fa due to symmetrization =    -0.12745360322696797084E-12   -0.82600593032111646608E-13    0.95035090907913399860E-13
change in fa due to symmetrization =     0.43520742565306136385E-13   -0.23536728122053318657E-12    0.17674750552032492124E-12
change in fa due to symmetrization =    -0.11191048088221577927E-12    0.15631940186722204089E-12   -0.22248869413488137070E-12
change in fa due to symmetrization =     0.10214051826551440172E-12   -0.11546319456101628020E-12    0.13766765505351941101E-12
change in fa due to symmetrization =    -0.17053025658242404461E-12    0.12434497875801753253E-12   -0.11191048088221577927E-12
change in fa due to symmetrization =     0.73718808835110394284E-13    0.21849189124623080716E-12   -0.19673151996357773896E-12
change in fa due to symmetrization =    -0.29309887850104132667E-13   -0.25401902803423581645E-12    0.23003821070233243518E-12
change in fa due to symmetrization =    -0.14077627952246984933E-12   -0.92370555648813024163E-13   -0.12434497875801753253E-12
change in fa due to symmetrization =     0.14876988529977097642E-12    0.63060667798708891496E-13    0.15898393712632241659E-12
change in fa due to symmetrization =     0.12967404927621828392E-12   -0.17053025658242404461E-12   -0.95035090907913399860E-13
change in fa due to symmetrization =    -0.12523315717771765776E-12    0.10258460747536446434E-12    0.12878587085651815869E-12
change in fa due to symmetrization =    -0.25135449277513544075E-12   -0.25757174171303631738E-13    0.23403501359098299872E-12
change in fa due to symmetrization =     0.21405099914773018099E-12    0.76383344094210769981E-13   -0.19673151996357773896E-12
change in fa due to symmetrization =     0.74606987254810519516E-13    0.14166445794216997456E-12    0.16076029396572266705E-12
change in fa due to symmetrization =    -0.98587804586713900790E-13   -0.13899992268306959886E-12   -0.11812772982011665590E-12
change in fa due to symmetrization =     0.95923269327613525093E-13   -0.14388490399142028764E-12   -0.24114044094858400058E-12
change in fa due to symmetrization =     0.10214051826551440172E-12   -0.11546319456101628020E-12    0.13766765505351941101E-12
change in fa due to symmetrization =    -0.17053025658242404461E-12    0.12434497875801753253E-12   -0.11191048088221577927E-12
change in fa due to symmetrization =     0.73718808835110394284E-13    0.21849189124623080716E-12   -0.19673151996357773896E-12
change in fa due to symmetrization =    -0.29309887850104132667E-13   -0.25401902803423581645E-12    0.23003821070233243518E-12
change in fa due to symmetrization =    -0.14077627952246984933E-12   -0.92370555648813024163E-13   -0.12434497875801753253E-12
change in fa due to symmetrization =     0.14876988529977097642E-12    0.63060667798708891496E-13    0.15898393712632241659E-12
change in fa due to symmetrization =     0.12967404927621828392E-12   -0.17053025658242404461E-12   -0.95035090907913399860E-13
change in fa due to symmetrization =    -0.12523315717771765776E-12    0.10258460747536446434E-12    0.12878587085651815869E-12
change in fa due to symmetrization =    -0.25135449277513544075E-12   -0.25757174171303631738E-13    0.23403501359098299872E-12
change in fa due to symmetrization =     0.21405099914773018099E-12    0.76383344094210769981E-13   -0.19673151996357773896E-12
change in fa due to symmetrization =     0.74606987254810519516E-13    0.14166445794216997456E-12    0.16076029396572266705E-12
change in fa due to symmetrization =     0.10214051826551440172E-12   -0.11546319456101628020E-12    0.13766765505351941101E-12
change in fa due to symmetrization =    -0.17053025658242404461E-12    0.12434497875801753253E-12   -0.11191048088221577927E-12
change in fa due to symmetrization =     0.73718808835110394284E-13    0.21849189124623080716E-12   -0.19673151996357773896E-12
change in fa due to symmetrization =    -0.29309887850104132667E-13   -0.25401902803423581645E-12    0.23003821070233243518E-12
change in fa due to symmetrization =    -0.14077627952246984933E-12   -0.92370555648813024163E-13   -0.12434497875801753253E-12
change in fa due to symmetrization =     0.14876988529977097642E-12    0.63060667798708891496E-13    0.15898393712632241659E-12
change in fa due to symmetrization =     0.12967404927621828392E-12   -0.17053025658242404461E-12   -0.95035090907913399860E-13
change in fa due to symmetrization =    -0.12523315717771765776E-12    0.10258460747536446434E-12    0.12878587085651815869E-12
change in fa due to symmetrization =    -0.25135449277513544075E-12   -0.25757174171303631738E-13    0.23403501359098299872E-12
change in fa due to symmetrization =     0.21405099914773018099E-12    0.76383344094210769981E-13   -0.19673151996357773896E-12
change in fa due to symmetrization =     0.74606987254810519516E-13    0.14166445794216997456E-12    0.16076029396572266705E-12
change in fa due to symmetrization =    -0.98587804586713900790E-13   -0.13899992268306959886E-12   -0.11812772982011665590E-12
change in fa due to symmetrization =    -0.14388490399142028764E-12    0.10125233984581427649E-12   -0.24291679778798425104E-12
change in fa due to symmetrization =     0.10214051826551440172E-12   -0.11546319456101628020E-12    0.13766765505351941101E-12
change in fa due to symmetrization =    -0.17053025658242404461E-12    0.12434497875801753253E-12   -0.11191048088221577927E-12
change in fa due to symmetrization =     0.73718808835110394284E-13    0.21849189124623080716E-12   -0.19673151996357773896E-12
change in fa due to symmetrization =    -0.29309887850104132667E-13   -0.25401902803423581645E-12    0.23003821070233243518E-12
change in fa due to symmetrization =     0.73718808835110394284E-13    0.21849189124623080716E-12   -0.19673151996357773896E-12
change in fa due to symmetrization =    -0.29309887850104132667E-13   -0.25401902803423581645E-12    0.23003821070233243518E-12
change in fa due to symmetrization =    -0.14077627952246984933E-12   -0.92370555648813024163E-13   -0.12434497875801753253E-12
change in fa due to symmetrization =     0.14876988529977097642E-12    0.63060667798708891496E-13    0.15898393712632241659E-12
change in fa due to symmetrization =     0.12967404927621828392E-12   -0.17053025658242404461E-12   -0.95035090907913399860E-13
change in fa due to symmetrization =    -0.12523315717771765776E-12    0.10258460747536446434E-12    0.12878587085651815869E-12
change in fa due to symmetrization =    -0.25135449277513544075E-12   -0.25757174171303631738E-13    0.23403501359098299872E-12
change in fa due to symmetrization =     0.21405099914773018099E-12    0.76383344094210769981E-13   -0.19673151996357773896E-12
change in fa due to symmetrization =     0.74606987254810519516E-13    0.14166445794216997456E-12    0.16076029396572266705E-12
change in fa due to symmetrization =    -0.98587804586713900790E-13   -0.13899992268306959886E-12   -0.11812772982011665590E-12
change in fa due to symmetrization =    -0.14388490399142028764E-12    0.10125233984581427649E-12   -0.24291679778798425104E-12
change in fa due to symmetrization =     0.26112445539183681831E-12   -0.67501559897209517658E-13    0.21049828546892968006E-12
change in fa due to symmetrization =    -0.14832579608992091380E-12    0.14610535004067060072E-12   -0.66613381477509392425E-13
change in fa due to symmetrization =     0.15276668818842153996E-12   -0.13811174426336947363E-12    0.60396132539608515799E-13
change in fa due to symmetrization =     0.12967404927621828392E-12   -0.17053025658242404461E-12   -0.95035090907913399860E-13
change in fa due to symmetrization =    -0.12523315717771765776E-12    0.10258460747536446434E-12    0.12878587085651815869E-12
change in fa due to symmetrization =    -0.25135449277513544075E-12   -0.25757174171303631738E-13    0.23403501359098299872E-12
change in fa due to symmetrization =     0.21405099914773018099E-12    0.76383344094210769981E-13   -0.19673151996357773896E-12

siesta: E_KS - E_eggbox =       132.3059
change in fa due to symmetrization =    -0.14166445794216997456E-12    0.14388490399142028764E-12    0.72830630415410269052E-13
change in fa due to symmetrization =     0.15054624213917122688E-12   -0.13944401189291966148E-12   -0.78159700933611020446E-13
change in fa due to symmetrization =    -0.53290705182007513940E-13    0.26378899065093719400E-12    0.21893598045608086977E-12
change in fa due to symmetrization =     0.95923269327613525093E-13   -0.14388490399142028764E-12   -0.24114044094858400058E-12
change in fa due to symmetrization =     0.10214051826551440172E-12   -0.11546319456101628020E-12    0.13766765505351941101E-12
change in fa due to symmetrization =    -0.17053025658242404461E-12    0.12434497875801753253E-12   -0.11191048088221577927E-12
change in fa due to symmetrization =     0.73718808835110394284E-13    0.21849189124623080716E-12   -0.19673151996357773896E-12
change in fa due to symmetrization =    -0.29309887850104132667E-13   -0.25401902803423581645E-12    0.23003821070233243518E-12
change in fa due to symmetrization =    -0.14388490399142028764E-12    0.10125233984581427649E-12   -0.24291679778798425104E-12
change in fa due to symmetrization =     0.26112445539183681831E-12   -0.67501559897209517658E-13    0.21049828546892968006E-12
change in fa due to symmetrization =    -0.14832579608992091380E-12    0.14610535004067060072E-12   -0.66613381477509392425E-13
change in fa due to symmetrization =     0.15276668818842153996E-12   -0.13811174426336947363E-12    0.60396132539608515799E-13
change in fa due to symmetrization =    -0.98587804586713900790E-13   -0.13899992268306959886E-12   -0.11812772982011665590E-12
change in fa due to symmetrization =    -0.14388490399142028764E-12    0.10125233984581427649E-12   -0.24291679778798425104E-12
change in fa due to symmetrization =     0.26112445539183681831E-12   -0.67501559897209517658E-13    0.21049828546892968006E-12
change in fa due to symmetrization =    -0.14832579608992091380E-12    0.14610535004067060072E-12   -0.66613381477509392425E-13
change in fa due to symmetrization =     0.15276668818842153996E-12   -0.13811174426336947363E-12    0.60396132539608515799E-13
change in fa due to symmetrization =     0.26556534749033744447E-12    0.28421709430404007435E-13    0.20561330416057899129E-12
change in fa due to symmetrization =    -0.26201263381153694354E-12   -0.30198066269804257900E-13   -0.20206059048177849036E-12
change in fa due to symmetrization =    -0.90594198809412773699E-13   -0.12878587085651815869E-12    0.87041485130612272769E-13
change in fa due to symmetrization =     0.26556534749033744447E-12    0.28421709430404007435E-13    0.20561330416057899129E-12
change in fa due to symmetrization =    -0.26201263381153694354E-12   -0.30198066269804257900E-13   -0.20206059048177849036E-12
change in fa due to symmetrization =    -0.90594198809412773699E-13   -0.12878587085651815869E-12    0.87041485130612272769E-13
change in fa due to symmetrization =     0.19095836023552692495E-12    0.11191048088221577927E-12   -0.10036416142611415125E-12
change in fa due to symmetrization =     0.15631940186722204089E-12   -0.10835776720341527835E-12   -0.22293278334473143332E-12
change in fa due to symmetrization =    -0.23536728122053318657E-12    0.43520742565306136385E-13    0.17719159473017498385E-12
change in fa due to symmetrization =    -0.80380146982861333527E-13   -0.54178883601707639173E-13   -0.74606987254810519516E-13
change in fa due to symmetrization =     0.26556534749033744447E-12    0.28421709430404007435E-13    0.20561330416057899129E-12
change in fa due to symmetrization =    -0.26201263381153694354E-12   -0.30198066269804257900E-13   -0.20206059048177849036E-12
change in fa due to symmetrization =    -0.90594198809412773699E-13   -0.12878587085651815869E-12    0.87041485130612272769E-13
change in fa due to symmetrization =     0.19095836023552692495E-12    0.11191048088221577927E-12   -0.10036416142611415125E-12
change in fa due to symmetrization =     0.15631940186722204089E-12   -0.10835776720341527835E-12   -0.22293278334473143332E-12
change in fa due to symmetrization =    -0.23536728122053318657E-12    0.43520742565306136385E-13    0.17719159473017498385E-12
change in fa due to symmetrization =    -0.80380146982861333527E-13   -0.54178883601707639173E-13   -0.74606987254810519516E-13
change in fa due to symmetrization =     0.46185277824406512082E-13    0.17763568394002504647E-13    0.10302869668521452695E-12
change in fa due to symmetrization =    -0.84376949871511897072E-13    0.57731597280508140102E-13   -0.12079226507921703160E-12
change in fa due to symmetrization =     0.74606987254810519516E-13    0.14166445794216997456E-12    0.16076029396572266705E-12
change in fa due to symmetrization =    -0.98587804586713900790E-13   -0.13899992268306959886E-12   -0.11812772982011665590E-12
change in fa due to symmetrization =    -0.24868995751603506505E-13   -0.26556534749033744447E-12   -0.20650148258027911652E-12
change in fa due to symmetrization =     0.30198066269804257900E-13    0.26467716907063731924E-12    0.20383694732117874082E-12
change in fa due to symmetrization =     0.10746958878371515311E-12    0.18651746813702629879E-12   -0.11191048088221577927E-12
change in fa due to symmetrization =    -0.12745360322696797084E-12   -0.82600593032111646608E-13    0.95035090907913399860E-13
change in fa due to symmetrization =     0.43520742565306136385E-13   -0.23536728122053318657E-12    0.17674750552032492124E-12
change in fa due to symmetrization =    -0.11191048088221577927E-12    0.15631940186722204089E-12   -0.22248869413488137070E-12
change in fa due to symmetrization =    -0.14166445794216997456E-12    0.14388490399142028764E-12    0.72830630415410269052E-13
change in fa due to symmetrization =    -0.14077627952246984933E-12   -0.92370555648813024163E-13   -0.12434497875801753253E-12
change in fa due to symmetrization =     0.14876988529977097642E-12    0.63060667798708891496E-13    0.15898393712632241659E-12
change in fa due to symmetrization =     0.12967404927621828392E-12   -0.17053025658242404461E-12   -0.95035090907913399860E-13
change in fa due to symmetrization =    -0.12523315717771765776E-12    0.10258460747536446434E-12    0.12878587085651815869E-12
change in fa due to symmetrization =    -0.25135449277513544075E-12   -0.25757174171303631738E-13    0.23403501359098299872E-12
change in fa due to symmetrization =     0.21405099914773018099E-12    0.76383344094210769981E-13   -0.19673151996357773896E-12
change in fa due to symmetrization =     0.74606987254810519516E-13    0.14166445794216997456E-12    0.16076029396572266705E-12
change in fa due to symmetrization =    -0.98587804586713900790E-13   -0.13899992268306959886E-12   -0.11812772982011665590E-12
change in fa due to symmetrization =    -0.14388490399142028764E-12    0.10125233984581427649E-12   -0.24291679778798425104E-12
change in fa due to symmetrization =     0.19095836023552692495E-12    0.11191048088221577927E-12   -0.10036416142611415125E-12
change in fa due to symmetrization =     0.15631940186722204089E-12   -0.10835776720341527835E-12   -0.22293278334473143332E-12
change in fa due to symmetrization =    -0.23536728122053318657E-12    0.43520742565306136385E-13    0.17719159473017498385E-12
change in fa due to symmetrization =    -0.80380146982861333527E-13   -0.54178883601707639173E-13   -0.74606987254810519516E-13
change in fa due to symmetrization =     0.46185277824406512082E-13    0.17763568394002504647E-13    0.10302869668521452695E-12
change in fa due to symmetrization =    -0.84376949871511897072E-13    0.57731597280508140102E-13   -0.12079226507921703160E-12
change in fa due to symmetrization =     0.30198066269804257900E-13   -0.11590728377086634282E-12    0.10924594562311540358E-12
change in fa due to symmetrization =     0.10613732115416496526E-12    0.71942451995710143819E-13   -0.11812772982011665590E-12
change in fa due to symmetrization =    -0.29309887850104132667E-13   -0.37303493627405259758E-13    0.14654943925052066334E-12
change in fa due to symmetrization =     0.36415315207705134526E-13   -0.90150109599562711082E-13   -0.79047879353311145678E-13
change in fa due to symmetrization =     0.26112445539183681831E-12   -0.67501559897209517658E-13    0.21049828546892968006E-12
change in fa due to symmetrization =    -0.14832579608992091380E-12    0.14610535004067060072E-12   -0.66613381477509392425E-13
change in fa due to symmetrization =     0.15276668818842153996E-12   -0.13811174426336947363E-12    0.60396132539608515799E-13
change in fa due to symmetrization =     0.26556534749033744447E-12    0.28421709430404007435E-13    0.20561330416057899129E-12
change in fa due to symmetrization =    -0.26201263381153694354E-12   -0.30198066269804257900E-13   -0.20206059048177849036E-12
change in fa due to symmetrization =     0.97699626167013775557E-14    0.77715611723760957830E-13    0.39968028886505635455E-13
change in fa due to symmetrization =     0.83044682241961709224E-13   -0.88817841970012523234E-15    0.31086244689504383132E-13
change in fa due to symmetrization =    -0.14077627952246984933E-12   -0.92370555648813024163E-13   -0.12434497875801753253E-12
change in fa due to symmetrization =     0.14876988529977097642E-12    0.63060667798708891496E-13    0.15898393712632241659E-12
change in fa due to symmetrization =     0.12967404927621828392E-12   -0.17053025658242404461E-12   -0.95035090907913399860E-13
change in fa due to symmetrization =    -0.12523315717771765776E-12    0.10258460747536446434E-12    0.12878587085651815869E-12
change in fa due to symmetrization =    -0.25135449277513544075E-12   -0.25757174171303631738E-13    0.23403501359098299872E-12
change in fa due to symmetrization =     0.21405099914773018099E-12    0.76383344094210769981E-13   -0.19673151996357773896E-12
change in fa due to symmetrization =     0.74606987254810519516E-13    0.14166445794216997456E-12    0.16076029396572266705E-12
change in fa due to symmetrization =    -0.98587804586713900790E-13   -0.13899992268306959886E-12   -0.11812772982011665590E-12
change in fa due to symmetrization =    -0.14388490399142028764E-12    0.10125233984581427649E-12   -0.24291679778798425104E-12
change in fa due to symmetrization =     0.26112445539183681831E-12   -0.67501559897209517658E-13    0.21049828546892968006E-12
change in fa due to symmetrization =     0.26112445539183681831E-12   -0.67501559897209517658E-13    0.21049828546892968006E-12
change in fa due to symmetrization =    -0.14832579608992091380E-12    0.14610535004067060072E-12   -0.66613381477509392425E-13
change in fa due to symmetrization =     0.46185277824406512082E-13    0.17763568394002504647E-13    0.10302869668521452695E-12
change in fa due to symmetrization =    -0.84376949871511897072E-13    0.57731597280508140102E-13   -0.12079226507921703160E-12
change in fa due to symmetrization =     0.30198066269804257900E-13   -0.11590728377086634282E-12    0.10924594562311540358E-12
change in fa due to symmetrization =     0.10613732115416496526E-12    0.71942451995710143819E-13   -0.11812772982011665590E-12
change in fa due to symmetrization =    -0.29309887850104132667E-13   -0.37303493627405259758E-13    0.14654943925052066334E-12
change in fa due to symmetrization =     0.36415315207705134526E-13   -0.90150109599562711082E-13   -0.79047879353311145678E-13
change in fa due to symmetrization =     0.97699626167013775557E-14    0.77715611723760957830E-13    0.39968028886505635455E-13
change in fa due to symmetrization =     0.30198066269804257900E-13   -0.11590728377086634282E-12    0.10924594562311540358E-12
change in fa due to symmetrization =     0.10613732115416496526E-12    0.71942451995710143819E-13   -0.11812772982011665590E-12
change in fa due to symmetrization =    -0.29309887850104132667E-13   -0.37303493627405259758E-13    0.14654943925052066334E-12
change in fa due to symmetrization =     0.36415315207705134526E-13   -0.90150109599562711082E-13   -0.79047879353311145678E-13
change in fa due to symmetrization =     0.97699626167013775557E-14    0.77715611723760957830E-13    0.39968028886505635455E-13
change in fa due to symmetrization =     0.15054624213917122688E-12   -0.13944401189291966148E-12   -0.78159700933611020446E-13
change in fa due to symmetrization =    -0.53290705182007513940E-13    0.26378899065093719400E-12    0.21893598045608086977E-12
change in fa due to symmetrization =     0.95923269327613525093E-13   -0.14388490399142028764E-12   -0.24114044094858400058E-12
change in fa due to symmetrization =     0.10214051826551440172E-12   -0.11546319456101628020E-12    0.13766765505351941101E-12
change in fa due to symmetrization =    -0.17053025658242404461E-12    0.12434497875801753253E-12   -0.11191048088221577927E-12
change in fa due to symmetrization =     0.73718808835110394284E-13    0.21849189124623080716E-12   -0.19673151996357773896E-12
change in fa due to symmetrization =    -0.29309887850104132667E-13   -0.25401902803423581645E-12    0.23003821070233243518E-12
change in fa due to symmetrization =    -0.90594198809412773699E-13   -0.12878587085651815869E-12    0.87041485130612272769E-13
change in fa due to symmetrization =     0.19095836023552692495E-12    0.11191048088221577927E-12   -0.10036416142611415125E-12
change in fa due to symmetrization =     0.15631940186722204089E-12   -0.10835776720341527835E-12   -0.22293278334473143332E-12
change in fa due to symmetrization =    -0.23536728122053318657E-12    0.43520742565306136385E-13    0.17719159473017498385E-12
change in fa due to symmetrization =    -0.80380146982861333527E-13   -0.54178883601707639173E-13   -0.74606987254810519516E-13
change in fa due to symmetrization =    -0.14077627952246984933E-12   -0.92370555648813024163E-13   -0.12434497875801753253E-12
change in fa due to symmetrization =     0.14876988529977097642E-12    0.63060667798708891496E-13    0.15898393712632241659E-12
change in fa due to symmetrization =     0.12967404927621828392E-12   -0.17053025658242404461E-12   -0.95035090907913399860E-13
change in fa due to symmetrization =    -0.12523315717771765776E-12    0.10258460747536446434E-12    0.12878587085651815869E-12
change in fa due to symmetrization =    -0.87485574340462335385E-13    0.33750779948604758829E-13   -0.74606987254810519516E-13
change in fa due to symmetrization =     0.30198066269804257900E-13    0.48849813083506887779E-13    0.10835776720341527835E-12
change in fa due to symmetrization =    -0.60396132539608515799E-13   -0.80380146982861333527E-13   -0.79936057773011270911E-13
change in fa due to symmetrization =    -0.11501910535116621759E-12    0.29309887850104132667E-13    0.99475983006414026022E-13
change in fa due to symmetrization =     0.63504757008558954112E-13   -0.77271522513910895213E-13   -0.11723955140041653067E-12
change in fa due to symmetrization =     0.15276668818842153996E-12   -0.13811174426336947363E-12    0.60396132539608515799E-13
change in fa due to symmetrization =     0.26556534749033744447E-12    0.28421709430404007435E-13    0.20561330416057899129E-12
change in fa due to symmetrization =    -0.26201263381153694354E-12   -0.30198066269804257900E-13   -0.20206059048177849036E-12
change in fa due to symmetrization =    -0.90594198809412773699E-13   -0.12878587085651815869E-12    0.87041485130612272769E-13
change in fa due to symmetrization =     0.19095836023552692495E-12    0.11191048088221577927E-12   -0.10036416142611415125E-12
change in fa due to symmetrization =     0.15631940186722204089E-12   -0.10835776720341527835E-12   -0.22293278334473143332E-12
change in fa due to symmetrization =     0.83044682241961709224E-13   -0.88817841970012523234E-15    0.31086244689504383132E-13
change in fa due to symmetrization =    -0.87485574340462335385E-13    0.33750779948604758829E-13   -0.74606987254810519516E-13
change in fa due to symmetrization =     0.30198066269804257900E-13    0.48849813083506887779E-13    0.10835776720341527835E-12
change in fa due to symmetrization =    -0.60396132539608515799E-13   -0.80380146982861333527E-13   -0.79936057773011270911E-13
change in fa due to symmetrization =    -0.11501910535116621759E-12    0.29309887850104132667E-13    0.99475983006414026022E-13
change in fa due to symmetrization =     0.63504757008558954112E-13   -0.77271522513910895213E-13   -0.11723955140041653067E-12
change in fa due to symmetrization =     0.83044682241961709224E-13   -0.88817841970012523234E-15    0.31086244689504383132E-13
change in fa due to symmetrization =    -0.87485574340462335385E-13    0.33750779948604758829E-13   -0.74606987254810519516E-13
change in fa due to symmetrization =     0.30198066269804257900E-13    0.48849813083506887779E-13    0.10835776720341527835E-12
change in fa due to symmetrization =    -0.60396132539608515799E-13   -0.80380146982861333527E-13   -0.79936057773011270911E-13
change in fa due to symmetrization =    -0.11501910535116621759E-12    0.29309887850104132667E-13    0.99475983006414026022E-13
change in fa due to symmetrization =     0.63504757008558954112E-13   -0.77271522513910895213E-13   -0.11723955140041653067E-12
change in fa due to symmetrization =    -0.53290705182007513940E-13   -0.25313084961453569122E-13    0.15010215292932116427E-12
change in fa due to symmetrization =    -0.25135449277513544075E-12   -0.25757174171303631738E-13    0.23403501359098299872E-12
change in fa due to symmetrization =     0.21405099914773018099E-12    0.76383344094210769981E-13   -0.19673151996357773896E-12
change in fa due to symmetrization =     0.74606987254810519516E-13    0.14166445794216997456E-12    0.16076029396572266705E-12
change in fa due to symmetrization =    -0.14832579608992091380E-12    0.14610535004067060072E-12   -0.66613381477509392425E-13
change in fa due to symmetrization =     0.15276668818842153996E-12   -0.13811174426336947363E-12    0.60396132539608515799E-13
change in fa due to symmetrization =     0.26556534749033744447E-12    0.28421709430404007435E-13    0.20561330416057899129E-12
change in fa due to symmetrization =    -0.26201263381153694354E-12   -0.30198066269804257900E-13   -0.20206059048177849036E-12
change in fa due to symmetrization =    -0.90594198809412773699E-13   -0.12878587085651815869E-12    0.87041485130612272769E-13
change in fa due to symmetrization =     0.19095836023552692495E-12    0.11191048088221577927E-12   -0.10036416142611415125E-12
change in fa due to symmetrization =    -0.53290705182007513940E-13   -0.25313084961453569122E-13    0.15010215292932116427E-12
change in fa due to symmetrization =     0.79047879353311145678E-13    0.95479180117763462476E-13   -0.12523315717771765776E-12
Max change in any component of fa due to symmetrization =     0.2655653475E-12
Max relative change =     0.1127188059E-12
change in fa due to symmetrization =    -0.23536728122053318657E-12    0.43520742565306136385E-13    0.17719159473017498385E-12
change in fa due to symmetrization =    -0.80380146982861333527E-13   -0.54178883601707639173E-13   -0.74606987254810519516E-13
change in fa due to symmetrization =     0.46185277824406512082E-13    0.17763568394002504647E-13    0.10302869668521452695E-12
change in fa due to symmetrization =    -0.84376949871511897072E-13    0.57731597280508140102E-13   -0.12079226507921703160E-12
change in fa due to symmetrization =     0.30198066269804257900E-13   -0.11590728377086634282E-12    0.10924594562311540358E-12
change in fa due to symmetrization =    -0.53290705182007513940E-13   -0.25313084961453569122E-13    0.15010215292932116427E-12
change in fa due to symmetrization =     0.79047879353311145678E-13    0.95479180117763462476E-13   -0.12523315717771765776E-12
Max change in any component of fa due to symmetrization =     0.2655653475E-12
Max relative change =     0.1127188059E-12
change in fa due to symmetrization =     0.15631940186722204089E-12   -0.10835776720341527835E-12   -0.22293278334473143332E-12
change in fa due to symmetrization =    -0.23536728122053318657E-12    0.43520742565306136385E-13    0.17719159473017498385E-12
change in fa due to symmetrization =    -0.80380146982861333527E-13   -0.54178883601707639173E-13   -0.74606987254810519516E-13
change in fa due to symmetrization =     0.46185277824406512082E-13    0.17763568394002504647E-13    0.10302869668521452695E-12
change in fa due to symmetrization =    -0.84376949871511897072E-13    0.57731597280508140102E-13   -0.12079226507921703160E-12
change in fa due to symmetrization =     0.30198066269804257900E-13   -0.11590728377086634282E-12    0.10924594562311540358E-12
change in fa due to symmetrization =     0.10613732115416496526E-12    0.71942451995710143819E-13   -0.11812772982011665590E-12
change in fa due to symmetrization =    -0.29309887850104132667E-13   -0.37303493627405259758E-13    0.14654943925052066334E-12
change in fa due to symmetrization =     0.36415315207705134526E-13   -0.90150109599562711082E-13   -0.79047879353311145678E-13
old  stress = 
   -0.5849092696E-01   -0.3070325027E-16   -0.9877081791E-16
   -0.3031700325E-16   -0.5849092696E-01   -0.2054563117E-16
   -0.1000718605E-15   -0.2249719508E-16   -0.5849092696E-01
stress with symmetrization = 
   -0.5849092696E-01    0.0000000000E+00    0.0000000000E+00
    0.0000000000E+00   -0.5849092696E-01    0.0000000000E+00
    0.0000000000E+00    0.0000000000E+00   -0.5849092696E-01
change in components of stress due to symmetrization = 
   -0.1630640067E-14    0.3070325027E-16    0.9877081791E-16
    0.3031700325E-16   -0.1908195824E-14    0.2054563117E-16
old  stress = 
   -0.5849092696E-01   -0.3070325027E-16   -0.9877081791E-16
   -0.3031700325E-16   -0.5849092696E-01   -0.2054563117E-16
   -0.1000718605E-15   -0.2249719508E-16   -0.5849092696E-01
stress with symmetrization = 
   -0.5849092696E-01    0.0000000000E+00    0.0000000000E+00
    0.0000000000E+00   -0.5849092696E-01    0.0000000000E+00
    0.0000000000E+00    0.0000000000E+00   -0.5849092696E-01
change in components of stress due to symmetrization = 
   -0.1630640067E-14    0.3070325027E-16    0.9877081791E-16
    0.3031700325E-16   -0.1908195824E-14    0.2054563117E-16
    0.1000718605E-15    0.2249719508E-16    0.3518019209E-14
change in fa due to symmetrization =     0.46185277824406512082E-13    0.17763568394002504647E-13    0.10302869668521452695E-12
change in fa due to symmetrization =    -0.84376949871511897072E-13    0.57731597280508140102E-13   -0.12079226507921703160E-12
change in fa due to symmetrization =     0.30198066269804257900E-13   -0.11590728377086634282E-12    0.10924594562311540358E-12
change in fa due to symmetrization =     0.10613732115416496526E-12    0.71942451995710143819E-13   -0.11812772982011665590E-12
change in fa due to symmetrization =    -0.29309887850104132667E-13   -0.37303493627405259758E-13    0.14654943925052066334E-12
change in fa due to symmetrization =     0.36415315207705134526E-13   -0.90150109599562711082E-13   -0.79047879353311145678E-13
change in fa due to symmetrization =     0.97699626167013775557E-14    0.77715611723760957830E-13    0.39968028886505635455E-13
change in fa due to symmetrization =     0.83044682241961709224E-13   -0.88817841970012523234E-15    0.31086244689504383132E-13
change in fa due to symmetrization =    -0.87485574340462335385E-13    0.33750779948604758829E-13   -0.74606987254810519516E-13
change in fa due to symmetrization =     0.30198066269804257900E-13    0.48849813083506887779E-13    0.10835776720341527835E-12
change in fa due to symmetrization =    -0.60396132539608515799E-13   -0.80380146982861333527E-13   -0.79936057773011270911E-13
change in fa due to symmetrization =    -0.11501910535116621759E-12    0.29309887850104132667E-13    0.99475983006414026022E-13
change in fa due to symmetrization =     0.79047879353311145678E-13    0.95479180117763462476E-13   -0.12523315717771765776E-12
Max change in any component of fa due to symmetrization =     0.2655653475E-12
change in fa due to symmetrization =    -0.98587804586713900790E-13   -0.13899992268306959886E-12   -0.11812772982011665590E-12
change in fa due to symmetrization =    -0.14388490399142028764E-12    0.10125233984581427649E-12   -0.24291679778798425104E-12
change in fa due to symmetrization =     0.26112445539183681831E-12   -0.67501559897209517658E-13    0.21049828546892968006E-12
change in fa due to symmetrization =    -0.14832579608992091380E-12    0.14610535004067060072E-12   -0.66613381477509392425E-13
change in fa due to symmetrization =     0.15276668818842153996E-12   -0.13811174426336947363E-12    0.60396132539608515799E-13
change in fa due to symmetrization =     0.26556534749033744447E-12    0.28421709430404007435E-13    0.20561330416057899129E-12
change in fa due to symmetrization =    -0.26201263381153694354E-12   -0.30198066269804257900E-13   -0.20206059048177849036E-12
change in fa due to symmetrization =    -0.90594198809412773699E-13   -0.12878587085651815869E-12    0.87041485130612272769E-13
change in fa due to symmetrization =     0.19095836023552692495E-12    0.11191048088221577927E-12   -0.10036416142611415125E-12
change in fa due to symmetrization =     0.15631940186722204089E-12   -0.10835776720341527835E-12   -0.22293278334473143332E-12
change in fa due to symmetrization =    -0.23536728122053318657E-12    0.43520742565306136385E-13    0.17719159473017498385E-12
change in fa due to symmetrization =    -0.80380146982861333527E-13   -0.54178883601707639173E-13   -0.74606987254810519516E-13
change in fa due to symmetrization =     0.46185277824406512082E-13    0.17763568394002504647E-13    0.10302869668521452695E-12
change in fa due to symmetrization =    -0.84376949871511897072E-13    0.57731597280508140102E-13   -0.12079226507921703160E-12
change in fa due to symmetrization =     0.63504757008558954112E-13   -0.77271522513910895213E-13   -0.11723955140041653067E-12
change in fa due to symmetrization =    -0.53290705182007513940E-13   -0.25313084961453569122E-13    0.15010215292932116427E-12
change in fa due to symmetrization =     0.79047879353311145678E-13    0.95479180117763462476E-13   -0.12523315717771765776E-12
    0.1000718605E-15    0.2249719508E-16    0.3518019209E-14
Max change in any component of stress due to symmetrization =     0.3518019209E-14
change in fa due to symmetrization =     0.97699626167013775557E-14    0.77715611723760957830E-13    0.39968028886505635455E-13
change in fa due to symmetrization =     0.83044682241961709224E-13   -0.88817841970012523234E-15    0.31086244689504383132E-13
change in fa due to symmetrization =    -0.87485574340462335385E-13    0.33750779948604758829E-13   -0.74606987254810519516E-13
change in fa due to symmetrization =     0.30198066269804257900E-13    0.48849813083506887779E-13    0.10835776720341527835E-12
change in fa due to symmetrization =    -0.60396132539608515799E-13   -0.80380146982861333527E-13   -0.79936057773011270911E-13
change in fa due to symmetrization =    -0.11501910535116621759E-12    0.29309887850104132667E-13    0.99475983006414026022E-13
change in fa due to symmetrization =     0.63504757008558954112E-13   -0.77271522513910895213E-13   -0.11723955140041653067E-12
change in fa due to symmetrization =    -0.53290705182007513940E-13   -0.25313084961453569122E-13    0.15010215292932116427E-12
change in fa due to symmetrization =     0.79047879353311145678E-13    0.95479180117763462476E-13   -0.12523315717771765776E-12
change in fa due to symmetrization =    -0.14388490399142028764E-12    0.10125233984581427649E-12   -0.24291679778798425104E-12
change in fa due to symmetrization =     0.26112445539183681831E-12   -0.67501559897209517658E-13    0.21049828546892968006E-12
change in fa due to symmetrization =    -0.14832579608992091380E-12    0.14610535004067060072E-12   -0.66613381477509392425E-13
change in fa due to symmetrization =     0.15276668818842153996E-12   -0.13811174426336947363E-12    0.60396132539608515799E-13
change in fa due to symmetrization =     0.26556534749033744447E-12    0.28421709430404007435E-13    0.20561330416057899129E-12
change in fa due to symmetrization =    -0.26201263381153694354E-12   -0.30198066269804257900E-13   -0.20206059048177849036E-12
change in fa due to symmetrization =    -0.90594198809412773699E-13   -0.12878587085651815869E-12    0.87041485130612272769E-13
change in fa due to symmetrization =     0.19095836023552692495E-12    0.11191048088221577927E-12   -0.10036416142611415125E-12
change in fa due to symmetrization =     0.15631940186722204089E-12   -0.10835776720341527835E-12   -0.22293278334473143332E-12
change in fa due to symmetrization =     0.10613732115416496526E-12    0.71942451995710143819E-13   -0.11812772982011665590E-12
change in fa due to symmetrization =    -0.29309887850104132667E-13   -0.37303493627405259758E-13    0.14654943925052066334E-12
change in fa due to symmetrization =     0.36415315207705134526E-13   -0.90150109599562711082E-13   -0.79047879353311145678E-13
change in fa due to symmetrization =     0.97699626167013775557E-14    0.77715611723760957830E-13    0.39968028886505635455E-13
change in fa due to symmetrization =     0.83044682241961709224E-13   -0.88817841970012523234E-15    0.31086244689504383132E-13
change in fa due to symmetrization =    -0.87485574340462335385E-13    0.33750779948604758829E-13   -0.74606987254810519516E-13
change in fa due to symmetrization =     0.30198066269804257900E-13    0.48849813083506887779E-13    0.10835776720341527835E-12
change in fa due to symmetrization =    -0.60396132539608515799E-13   -0.80380146982861333527E-13   -0.79936057773011270911E-13
change in fa due to symmetrization =    -0.11501910535116621759E-12    0.29309887850104132667E-13    0.99475983006414026022E-13
change in fa due to symmetrization =     0.63504757008558954112E-13   -0.77271522513910895213E-13   -0.11723955140041653067E-12
change in fa due to symmetrization =    -0.53290705182007513940E-13   -0.25313084961453569122E-13    0.15010215292932116427E-12
change in fa due to symmetrization =     0.79047879353311145678E-13    0.95479180117763462476E-13   -0.12523315717771765776E-12
Max change in any component of fa due to symmetrization =     0.2655653475E-12
Max relative change =     0.1127188059E-12
old  stress = 
   -0.5849092696E-01   -0.3070325027E-16   -0.9877081791E-16
change in fa due to symmetrization =     0.30198066269804257900E-13   -0.11590728377086634282E-12    0.10924594562311540358E-12
change in fa due to symmetrization =     0.10613732115416496526E-12    0.71942451995710143819E-13   -0.11812772982011665590E-12
change in fa due to symmetrization =    -0.29309887850104132667E-13   -0.37303493627405259758E-13    0.14654943925052066334E-12
change in fa due to symmetrization =     0.36415315207705134526E-13   -0.90150109599562711082E-13   -0.79047879353311145678E-13
change in fa due to symmetrization =     0.97699626167013775557E-14    0.77715611723760957830E-13    0.39968028886505635455E-13
change in fa due to symmetrization =     0.83044682241961709224E-13   -0.88817841970012523234E-15    0.31086244689504383132E-13
change in fa due to symmetrization =    -0.87485574340462335385E-13    0.33750779948604758829E-13   -0.74606987254810519516E-13
change in fa due to symmetrization =     0.30198066269804257900E-13    0.48849813083506887779E-13    0.10835776720341527835E-12
change in fa due to symmetrization =    -0.60396132539608515799E-13   -0.80380146982861333527E-13   -0.79936057773011270911E-13
Max change in any component of stress due to symmetrization =     0.3518019209E-14
change in fa due to symmetrization =    -0.11501910535116621759E-12    0.29309887850104132667E-13    0.99475983006414026022E-13
change in fa due to symmetrization =     0.63504757008558954112E-13   -0.77271522513910895213E-13   -0.11723955140041653067E-12
   -0.3031700325E-16   -0.5849092696E-01   -0.2054563117E-16
   -0.1000718605E-15   -0.2249719508E-16   -0.5849092696E-01
stress with symmetrization = 
   -0.5849092696E-01    0.0000000000E+00    0.0000000000E+00
    0.0000000000E+00   -0.5849092696E-01    0.0000000000E+00
    0.0000000000E+00    0.0000000000E+00   -0.5849092696E-01
change in components of stress due to symmetrization = 
   -0.1630640067E-14    0.3070325027E-16    0.9877081791E-16
Max relative change =     0.1127188059E-12
old  stress = 
   -0.5849092696E-01   -0.3070325027E-16   -0.9877081791E-16
   -0.3031700325E-16   -0.5849092696E-01   -0.2054563117E-16
   -0.1000718605E-15   -0.2249719508E-16   -0.5849092696E-01
stress with symmetrization = 
   -0.5849092696E-01    0.0000000000E+00    0.0000000000E+00
Max change in any component of fa due to symmetrization =     0.2655653475E-12
Max relative change =     0.1127188059E-12
old  stress = 
   -0.5849092696E-01   -0.3070325027E-16   -0.9877081791E-16
   -0.3031700325E-16   -0.5849092696E-01   -0.2054563117E-16
change in fa due to symmetrization =    -0.23536728122053318657E-12    0.43520742565306136385E-13    0.17719159473017498385E-12
change in fa due to symmetrization =    -0.80380146982861333527E-13   -0.54178883601707639173E-13   -0.74606987254810519516E-13
change in fa due to symmetrization =     0.46185277824406512082E-13    0.17763568394002504647E-13    0.10302869668521452695E-12
change in fa due to symmetrization =    -0.84376949871511897072E-13    0.57731597280508140102E-13   -0.12079226507921703160E-12
change in fa due to symmetrization =     0.30198066269804257900E-13   -0.11590728377086634282E-12    0.10924594562311540358E-12
change in fa due to symmetrization =     0.10613732115416496526E-12    0.71942451995710143819E-13   -0.11812772982011665590E-12
change in fa due to symmetrization =    -0.29309887850104132667E-13   -0.37303493627405259758E-13    0.14654943925052066334E-12
    0.3031700325E-16   -0.1908195824E-14    0.2054563117E-16
    0.1000718605E-15    0.2249719508E-16    0.3518019209E-14
Max change in any component of stress due to symmetrization =     0.3518019209E-14
    0.0000000000E+00   -0.5849092696E-01    0.0000000000E+00
    0.0000000000E+00    0.0000000000E+00   -0.5849092696E-01
   -0.1000718605E-15   -0.2249719508E-16   -0.5849092696E-01
stress with symmetrization = 
   -0.5849092696E-01    0.0000000000E+00    0.0000000000E+00
change in fa due to symmetrization =     0.36415315207705134526E-13   -0.90150109599562711082E-13   -0.79047879353311145678E-13
change in fa due to symmetrization =     0.97699626167013775557E-14    0.77715611723760957830E-13    0.39968028886505635455E-13
change in fa due to symmetrization =    -0.53290705182007513940E-13   -0.25313084961453569122E-13    0.15010215292932116427E-12
change in fa due to symmetrization =     0.79047879353311145678E-13    0.95479180117763462476E-13   -0.12523315717771765776E-12
Max change in any component of fa due to symmetrization =     0.2655653475E-12
Max relative change =     0.1127188059E-12
old  stress = 
   -0.5849092696E-01   -0.3070325027E-16   -0.9877081791E-16
   -0.3031700325E-16   -0.5849092696E-01   -0.2054563117E-16
   -0.1000718605E-15   -0.2249719508E-16   -0.5849092696E-01
stress with symmetrization = 
   -0.5849092696E-01    0.0000000000E+00    0.0000000000E+00
change in fa due to symmetrization =     0.83044682241961709224E-13   -0.88817841970012523234E-15    0.31086244689504383132E-13
change in fa due to symmetrization =    -0.87485574340462335385E-13    0.33750779948604758829E-13   -0.74606987254810519516E-13
change in fa due to symmetrization =     0.30198066269804257900E-13    0.48849813083506887779E-13    0.10835776720341527835E-12
change in fa due to symmetrization =    -0.60396132539608515799E-13   -0.80380146982861333527E-13   -0.79936057773011270911E-13
    0.0000000000E+00   -0.5849092696E-01    0.0000000000E+00
    0.0000000000E+00    0.0000000000E+00   -0.5849092696E-01
change in components of stress due to symmetrization = 
   -0.1630640067E-14    0.3070325027E-16    0.9877081791E-16
change in components of stress due to symmetrization = 
   -0.1630640067E-14    0.3070325027E-16    0.9877081791E-16
    0.3031700325E-16   -0.1908195824E-14    0.2054563117E-16
    0.1000718605E-15    0.2249719508E-16    0.3518019209E-14
Max change in any component of stress due to symmetrization =     0.3518019209E-14
Max change in any component of fa due to symmetrization =     0.2655653475E-12
Max relative change =     0.1127188059E-12
    0.0000000000E+00   -0.5849092696E-01    0.0000000000E+00
    0.0000000000E+00    0.0000000000E+00   -0.5849092696E-01
change in components of stress due to symmetrization = 
change in fa due to symmetrization =    -0.11501910535116621759E-12    0.29309887850104132667E-13    0.99475983006414026022E-13
change in fa due to symmetrization =     0.63504757008558954112E-13   -0.77271522513910895213E-13   -0.11723955140041653067E-12
change in fa due to symmetrization =    -0.53290705182007513940E-13   -0.25313084961453569122E-13    0.15010215292932116427E-12
change in fa due to symmetrization =     0.79047879353311145678E-13    0.95479180117763462476E-13   -0.12523315717771765776E-12
Max change in any component of fa due to symmetrization =     0.2655653475E-12
old  stress = 
   -0.5849092696E-01   -0.3070325027E-16   -0.9877081791E-16
   -0.3031700325E-16   -0.5849092696E-01   -0.2054563117E-16
   -0.1630640067E-14    0.3070325027E-16    0.9877081791E-16
    0.3031700325E-16   -0.1908195824E-14    0.2054563117E-16
    0.1000718605E-15    0.2249719508E-16    0.3518019209E-14
Max change in any component of stress due to symmetrization =     0.3518019209E-14
   -0.1000718605E-15   -0.2249719508E-16   -0.5849092696E-01
stress with symmetrization = 
   -0.5849092696E-01    0.0000000000E+00    0.0000000000E+00
    0.0000000000E+00   -0.5849092696E-01    0.0000000000E+00
Max relative change =     0.1127188059E-12
old  stress = 
   -0.5849092696E-01   -0.3070325027E-16   -0.9877081791E-16
    0.0000000000E+00    0.0000000000E+00   -0.5849092696E-01
change in components of stress due to symmetrization = 
   -0.1630640067E-14    0.3070325027E-16    0.9877081791E-16
    0.3031700325E-16   -0.1908195824E-14    0.2054563117E-16
    0.1000718605E-15    0.2249719508E-16    0.3518019209E-14
   -0.3031700325E-16   -0.5849092696E-01   -0.2054563117E-16
Max change in any component of stress due to symmetrization =     0.3518019209E-14
    0.3031700325E-16   -0.1908195824E-14    0.2054563117E-16
    0.1000718605E-15    0.2249719508E-16    0.3518019209E-14
Max change in any component of stress due to symmetrization =     0.3518019209E-14
   -0.1000718605E-15   -0.2249719508E-16   -0.5849092696E-01
stress with symmetrization = 
   -0.5849092696E-01    0.0000000000E+00    0.0000000000E+00
    0.0000000000E+00   -0.5849092696E-01    0.0000000000E+00
    0.0000000000E+00    0.0000000000E+00   -0.5849092696E-01
change in components of stress due to symmetrization = 
   -0.1630640067E-14    0.3070325027E-16    0.9877081791E-16
    0.3031700325E-16   -0.1908195824E-14    0.2054563117E-16
    0.1000718605E-15    0.2249719508E-16    0.3518019209E-14

Max change in any component of stress due to symmetrization =     0.3518019209E-14
siesta: Atomic forces (eV/Ang):
----------------------------------------
   Tot    0.000000    0.000000    0.000000
----------------------------------------
   Max  203.271361
   Res  148.816654    sqrt( Sum f_i^2 / 3N )
----------------------------------------
   Max  203.271361    constrained

Stress-tensor-Voigt (kbar):    -8604.48    -8604.48    -8604.48        0.00        0.00        0.00
(Free)E + p*V (eV/cell)      819.7220
Target enthalpy (eV/cell)      132.3059

siesta: Program's energy decomposition (eV):
siesta: Ebs     =         0.000000
siesta: Eions   =       945.951434
siesta: Ena     =      1490.114829
siesta: Ekin    =       606.891014
siesta: Enl     =      -471.786021
siesta: Eso     =         0.000000
siesta: Eldau   =         0.000000
siesta: DEna    =         0.000013
siesta: DUscf   =         0.000000
siesta: DUext   =         0.000000
siesta: Enegf   =         0.000000
siesta: Exc     =      -546.962507
siesta: eta*DQ  =         0.000000
siesta: Emadel  =         0.000000
siesta: Emeta   =         0.000000
siesta: Emolmec =         0.000000
siesta: Ekinion =         0.000000
siesta: Eharris =         0.000000
siesta: Etot    =       132.305895
siesta: FreeEng =       132.305895

siesta: Final energy (eV):
siesta:  Band Struct. =       0.000000
siesta:       Kinetic =     606.891014
siesta:       Hartree =     539.324694
siesta:       Eldau   =       0.000000
siesta:       Eso     =       0.000000
siesta:    Ext. field =       0.000000
siesta:       Enegf   =       0.000000
siesta:   Exch.-corr. =    -546.962507
siesta:  Ion-electron =   -2804.985754
siesta:       Ion-ion =    2338.038447
siesta:       Ekinion =       0.000000
siesta:         Total =     132.305895
siesta:         Fermi =       0.000000

siesta: Atomic forces (eV/Ang):
siesta:      1  203.271361 -148.491515  -55.409508
siesta:      2  -55.409508  203.271361 -148.491515
siesta:      3 -203.271361  148.491515  -55.409508
siesta:      4 -203.271361 -148.491515   55.409508
siesta:      5 -148.491515  203.271361   55.409508
siesta:      6 -148.491515  -55.409508  203.271361
siesta:      7  -55.409508 -203.271361  148.491515
siesta:      8   55.409508 -203.271361 -148.491515
siesta:      9   55.409508 -148.491515  203.271361
siesta:     10  203.271361  148.491515   55.409508
siesta:     11  148.491515 -203.271361   55.409508
siesta:     12   55.409508  203.271361  148.491515
siesta:     13  148.491515  203.271361  -55.409508
siesta:     14  203.271361  -55.409508  148.491515
siesta:     15 -148.491515 -203.271361  -55.409508
siesta:     16  148.491515  -55.409508 -203.271361
siesta:     17 -148.491515   55.409508 -203.271361
siesta:     18  203.271361   55.409508 -148.491515
siesta:     19   55.409508  148.491515 -203.271361
siesta:     20  148.491515   55.409508  203.271361
siesta:     21  -55.409508  148.491515  203.271361
siesta:     22  -55.409508 -148.491515 -203.271361
siesta:     23 -203.271361   55.409508  148.491515
siesta:     24 -203.271361  -55.409508 -148.491515
siesta:     25 -203.271361  148.491515   55.409508
siesta:     26   55.409508 -203.271361  148.491515
siesta:     27  203.271361 -148.491515   55.409508
siesta:     28  203.271361  148.491515  -55.409508
siesta:     29  148.491515 -203.271361  -55.409508
siesta:     30  148.491515   55.409508 -203.271361
siesta:     31   55.409508  203.271361 -148.491515
siesta:     32  -55.409508  203.271361  148.491515
siesta:     33  -55.409508  148.491515 -203.271361
siesta:     34 -203.271361 -148.491515  -55.409508
siesta:     35 -148.491515  203.271361  -55.409508
siesta:     36  -55.409508 -203.271361 -148.491515
siesta:     37 -148.491515 -203.271361   55.409508
siesta:     38 -203.271361   55.409508 -148.491515
siesta:     39  148.491515  203.271361   55.409508
siesta:     40 -148.491515   55.409508  203.271361
siesta:     41  148.491515  -55.409508  203.271361
siesta:     42 -203.271361  -55.409508  148.491515
siesta:     43  -55.409508 -148.491515  203.271361
siesta:     44 -148.491515  -55.409508 -203.271361
siesta:     45   55.409508 -148.491515 -203.271361
siesta:     46   55.409508  148.491515  203.271361
siesta:     47  203.271361  -55.409508 -148.491515
siesta:     48  203.271361   55.409508  148.491515
siesta: ----------------------------------------
siesta:    Tot    0.000000    0.000000    0.000000

siesta: Stress tensor (static) (eV/Ang**3):
siesta:    -5.370438    0.000000    0.000000
siesta:     0.000000   -5.370438    0.000000
siesta:     0.000000    0.000000   -5.370438

siesta: Cell volume =        128.000000 Ang**3

siesta: Pressure (static):
siesta:                Solid            Molecule  Units
siesta:           0.05849093         -0.01061176  Ry/Bohr**3
siesta:           5.37043800         -0.97433568  eV/Ang**3
siesta:        8604.48328274      -1561.07473590  kBar
(Free)E+ p_basis*V_orbitals  =         142.808906
(Free)Eharris+ p_basis*V_orbitals  =          10.503012

>> End of run:   2-APR-2019  17:13:50
Job completed
