Siesta Version  : siesta-4.1-1033
Architecture    : x86_64-linux-n-62-18-18
Compiler version: GNU Fortran (GCC) 7.3.0
Compiler flags  : mpifort -m64 -fPIC -O3 -march=native -ftree-vectorize -fexpensive-optimizatioons -funroll-loops -fprefetch-loop-arrays -fno-second-underscore  -flto
PP flags        : -I/zdata/groups/common/nicpa/2018-feb/generic/build-tools/1.0/include -I/zdatta/groups/common/nicpa/2018-feb/generic/gcc/7.3.0/include -I/zdata/groups/common/nicpa/2018-feb/generic/gcc/7.3.0/include -I/zdata/groups/common/nicpa/2018-feb/XeonE5-2665/zlib/1.2.11/gnu-7.3.0/include -I/zdata/groups/common/nicpa/2018-feb/generic/numactl/2.0.11/include -I/zdata/groups/common/nicpa/2018-feb/XeonE5-2665/libxml2/2.9.7/gnu-7.3.0/include -I/zdata/groups/common/nicpa/2018-feb/XeonE5-2665/hwloc/1.11.9/gnu-7.3.0/include -I/zdata/groups/common/nicpa/2018-feb/XeonE5-2665/openmpi/3.0.0/gnu-7.3.0/include -I/zdata/groups/common/nicpa/2018-feb/XeonE5-2665/szip/2.1.1/gnu-7.3.0/include -I/zdata/groups/common/nicpa/2018-feb/XeonE5-2665/hdf5/1.8.18/gnu-7.3.0/include -I/zdata/groups/common/nicpa/2018-feb/XeonE5-2665/pnetcdf/1.8.1/gnu-7.3.0/include -I/zdata/groups/common/nicpa/2018-feb/XeonE5-2665/netcdf/4.6.0/gnu-7.3.0/include -I/zdata/groups/common/nicpa/2018-feb/XeonE5-2665/flook/0.7.0/gnu-7.3.0/include -I/zdata/groups/common/nicpa/2018-feb/XeonE5-2665/parmetis/4.0.3/gnu-7.3.0/include -I/zdata/groups/common/nicpa/2018-feb/XeonE5-2665/scalapack/204/gnu-7.3.0/include -I/zdata/groups/common/nicpa/2018-feb/XeonE5-2665/openblas/0.2.20/gnu-7.3.0/include -I/zdata/groups/common/nicpa/2018-feb/XeonE5-2665/scotch/6.0.4/gnu-7.3.0/include -I/zdata/groups/common/nicpa/2018-feb/XeonE5-2665/mumps/5.1.2/gnu-7.3.0/include -I/zdata/groups/common/nicpa/2018-feb/XeonE5-2665/fftw/3.3.7/gnu-7.3.0/include -I/zdata/groups/common/nicpa/2018-feb/XeonE5-2665/elpa/2017.05.003/gnu-7.3.0/include/elpa -DSIESTA__ELPA -DMPI -D1 -DFC_HAVE_ABORT -DCDF -DCDF4 -DSIESTA__FLOOK  -DNCDF -DNCDF_4 -DNCDF_PARALLEL -DSIESTA__METIS -DSIESTA__MUMPS -DTS_NOCHECKS -DSIESTA__MRRR
Libraries       : libncdf.a libfdict.a -lnetcdff -lnetcdf -lpnetcdf -lhdf5_hl -lhdf5 -lz  -lzmuumps -lmumps_common -lesmumps -lscotch -lscotcherr -lpord -lparmetis -lmetis -lelpa -lscalapack -lopenblas  -L/zdata/groups/common/nicpa/2018-feb/XeonE5-2665/flook/0.7.0/gnu-7.3.0/lib -Wl,-rpath=/zdata/groups/common/nicpa/2018-feb/XeonE5-2665/flook/0.7.0/gnu-7.3.0/lib -lflookall -ldl  -flto -fuse-linker-plugin  -lmetis
PARALLEL version
NetCDF support
NetCDF-4 support
NetCDF-4 MPI-IO support
METIS ordering support

* Running on 8 nodes in parallel
>> Start of run:   5-NOV-2018  14:04:27

                           ***********************       
                           *  WELCOME TO SIESTA  *       
                           ***********************       

reinit: Reading from au_111_capacitor.fdf

reinit: -----------------------------------------------------------------------
reinit: System Name: au_111_capacitor
reinit: -----------------------------------------------------------------------
reinit: System Label: au_111_capacitor
reinit: -----------------------------------------------------------------------

initatom: Reading input for the pseudopotentials and atomic orbitals ----------
Species number:   1 Atomic number:   79 Label: Au

Ground state valence configuration:   6s01  5d10
Reading pseudopotential information in formatted form from Au.psf

Pseudopotential generated from a relativistic atomic calculation

Valence configuration for pseudopotential generation:
6s( 1.00) rc: 2.32
6p( 0.00) rc: 2.32
5d(10.00) rc: 2.32
5f( 0.00) rc: 2.32
For Au, standard SIESTA heuristics set lmxkb to 3
 (one more than the basis l, including polarization orbitals).
Use PS.lmax or PS.KBprojectors blocks to override.

<basis_specs>
===============================================================================
Au                   Z=  79    Mass=  196.97        Charge= 0.17977+309
Lmxo=2 Lmxkb= 3    BasisType=split      Semic=F
L=0  Nsemic=0  Cnfigmx=6
          n=1  nzeta=1  polorb=1
            splnorm:   0.15000    
               vcte:    0.0000    
               rinn:    0.0000    
               qcoe:    0.0000    
               qyuk:    0.0000    
               qwid:   0.10000E-01
                rcs:    0.0000    
            lambdas:    1.0000    
L=1  Nsemic=0  Cnfigmx=6
L=2  Nsemic=0  Cnfigmx=5
          n=1  nzeta=1  polorb=0
            splnorm:   0.15000    
               vcte:    0.0000    
               rinn:    0.0000    
               qcoe:    0.0000    
               qyuk:    0.0000    
               qwid:   0.10000E-01
                rcs:    0.0000    
            lambdas:    1.0000    
-------------------------------------------------------------------------------
L=0  Nkbl=1  erefs: 0.17977+309
L=1  Nkbl=1  erefs: 0.17977+309
L=2  Nkbl=1  erefs: 0.17977+309
L=3  Nkbl=1  erefs: 0.17977+309
===============================================================================
</basis_specs>

atom: Called for Au                    (Z =  79)

read_vps: Pseudopotential generation method:
read_vps: ATM3      Troullier-Martins                       
Total valence charge:   11.00000

xc_check: Exchange-correlation functional:
xc_check: Ceperley-Alder
V l=0 = -2*Zval/r beyond r=  3.7361
V l=1 = -2*Zval/r beyond r=  3.7361
V l=2 = -2*Zval/r beyond r=  3.7361
V l=3 = -2*Zval/r beyond r=  3.7361
All V_l potentials equal beyond r=  2.2946
This should be close to max(r_c) in ps generation
All pots = -2*Zval/r beyond r=  3.7361
Using large-core scheme for Vlocal

atom: Estimated core radius    3.73611

atom: Including non-local core corrections could be a good idea
atom: Maximum radius for 4*pi*r*r*local-pseudopot. charge    4.07775
atom: Maximum radius for r*vlocal+2*Zval:    3.78310
GHOST: No ghost state for L =  0
GHOST: No ghost state for L =  1
GHOST: No ghost state for L =  2
GHOST: No ghost state for L =  3

KBgen: Kleinman-Bylander projectors: 
   l= 0   rc=  2.382235   el= -0.445645   Ekb=  4.511922   kbcos=  0.274440
   l= 1   rc=  2.382235   el= -0.065316   Ekb=  2.560647   kbcos=  0.223707
   l= 2   rc=  2.382235   el= -0.526293   Ekb= -5.024070   kbcos= -0.676934
   l= 3   rc=  2.382235   el=  0.003438   Ekb= -2.070042   kbcos= -0.013117

KBgen: Total number of  Kleinman-Bylander projectors:   16
atom: -------------------------------------------------------------------------

atom: SANKEY-TYPE ORBITALS:

SPLIT: Orbitals with angular momentum L= 0

SPLIT: Basis orbitals for state 6s

SPLIT: PAO cut-off radius determined from an
SPLIT: energy shift=  0.005000 Ry

   izeta = 1
                 lambda =    1.000000
                     rc =    7.246712
                 energy =   -0.441368
                kinetic =    0.367640
    potential(screened) =   -0.809008
       potential(ionic) =   -8.408267

SPLIT: Orbitals with angular momentum L= 2

SPLIT: Basis orbitals for state 5d

SPLIT: PAO cut-off radius determined from an
SPLIT: energy shift=  0.005000 Ry

   izeta = 1
                 lambda =    1.000000
                     rc =    5.106662
                 energy =   -0.521343
                kinetic =    4.852314
    potential(screened) =   -5.373657
       potential(ionic) =  -16.114240

POLgen: Perturbative polarization orbital with L=  1

POLgen: Polarization orbital for state 6s

   izeta = 1
                     rc =    7.246712
                 energy =   -0.107868
                kinetic =    0.647525
    potential(screened) =   -0.755394
       potential(ionic) =   -7.869443
atom: Total number of Sankey-type orbitals:  9

atm_pop: Valence configuration (for local Pseudopot. screening):
 6s( 1.00)                                                            
 6p( 0.00)                                                            
 5d(10.00)                                                            
Vna: chval, zval:   11.00000  11.00000

Vna:  Cut-off radius for the neutral-atom potential:   7.246712

atom: _________________________________________________________________________

prinput: Basis input ----------------------------------------------------------

PAO.BasisType split     

%block ChemicalSpeciesLabel
    1   79 Au                      # Species index, atomic number, species label
%endblock ChemicalSpeciesLabel

%block PAO.Basis                 # Define Basis set
Au                    2                    # Species label, number of l-shells
 n=6   0   1 P   1                   # n, l, Nzeta, Polarization, NzetaPol
   7.247   
   1.000   
 n=5   2   1                         # n, l, Nzeta 
   5.107   
   1.000   
%endblock PAO.Basis

prinput: ----------------------------------------------------------------------

Dumping basis to NetCDF file Au.ion.nc
coor:   Atomic-coordinates input format  =     Cartesian coordinates
coor:                                          (in units of alat)

siesta: WARNING: XV file not found

siesta: Atomic coordinates (Bohr) and species
siesta:      0.00000   0.00000   0.00000  1        1
siesta:      5.52388   0.00000   0.00000  1        2
siesta:      2.76194   1.59461   4.51023  1        3
siesta:      8.28582   1.59461   4.51023  1        4
siesta:      2.76194  -1.59461   9.02046  1        5
siesta:      8.28582  -1.59461   9.02046  1        6
siesta:      0.00000   0.00000  13.53069  1        7
siesta:      5.52388   0.00000  13.53069  1        8
siesta:      2.76194   1.59461  18.04092  1        9
siesta:      8.28582   1.59461  18.04092  1       10
siesta:      2.76194   1.59461  36.08183  1       11
siesta:      8.28582   1.59461  36.08183  1       12
siesta:      2.76194  -1.59461  40.59206  1       13
siesta:      8.28582  -1.59461  40.59206  1       14
siesta:      0.00000   0.00000  45.10229  1       15
siesta:      5.52388   0.00000  45.10229  1       16
siesta:      2.76194   1.59461  49.61252  1       17
siesta:      8.28582   1.59461  49.61252  1       18
siesta:      2.76194  -1.59461  54.12275  1       19
siesta:      8.28582  -1.59461  54.12275  1       20

siesta: System type = bulk      

initatomlists: Number of atoms, orbitals, and projectors:     20   180   320

coxmol: Writing XMOL coordinates into file au_111_capacitor.xyz                                                

siesta: ******************** Simulation parameters ****************************
siesta:
siesta: The following are some of the parameters of the simulation.
siesta: A complete list of the parameters used, including default values,
siesta: can be found in file out.fdf
siesta:
redata: Spin configuration                          = none
redata: Number of spin components                   = 1
redata: Time-Reversal Symmetry                      = T
redata: Spin-spiral                                 = F
redata: Long output                                 =   F
redata: Number of Atomic Species                    =        1
redata: Charge density info will appear in .RHO file
redata: Write Mulliken Pop.                         = Atomic and Orbital charges
redata: Matel table size (NRTAB)                    =     1024
redata: Mesh Cutoff                                 =   350.0000 Ry
redata: Net charge of the system                    =     0.0000 |e|
redata: Min. number of SCF Iter                     =        0
redata: Max. number of SCF Iter                     =      300
redata: SCF convergence failure will abort job
redata: SCF mix quantity                            = Hamiltonian
redata: Mix DM or H after convergence               =   F
redata: Recompute H after scf cycle                 =   F
redata: Mix DM in first SCF step                    =   T
redata: Write Pulay info on disk                    =   F
redata: New DM Mixing Weight                        =     0.0300
redata: New DM Occupancy tolerance                  = 0.000000000001
redata: No kicks to SCF
redata: DM Mixing Weight for Kicks                  =     0.5000
redata: Require Harris convergence for SCF          =   F
redata: Harris energy tolerance for SCF             =     0.000100 eV
redata: Require DM convergence for SCF              =   T
redata: DM tolerance for SCF                        =     0.000100
redata: Require EDM convergence for SCF             =   F
redata: EDM tolerance for SCF                       =     0.001000 eV
redata: Require H convergence for SCF               =   T
redata: Hamiltonian tolerance for SCF               =     0.001000 eV
redata: Require (free) Energy convergence for SCF   =   F
redata: (free) Energy tolerance for SCF             =     0.000100 eV
redata: Using Saved Data (generic)                  =   F
redata: Use continuation files for DM               =   T
redata: Neglect nonoverlap interactions             =   F
redata: Method of Calculation                       = Transiesta
redata: Fix the spin of the system                  =   F
redata: Dynamics option                             = Single-point calculation
mix.SCF: Pulay mixing                            = Pulay
mix.SCF:    Variant                              = stable
mix.SCF:    History steps                        = 5
mix.SCF:    Linear mixing weight                 =     0.030000
mix.SCF:    Mixing weight                        =     0.030000
mix.SCF:    SVD condition                        = 0.1000E-07
redata: Save all siesta data in one NC              =   F
redata: ***********************************************************************

%block SCF.Mixers
  Pulay
%endblock SCF.Mixers

%block SCF.Mixer.Pulay
  # Mixing method
  method pulay
  variant stable

  # Mixing options
  weight 0.0300
  weight.linear 0.0300
  history 5
%endblock SCF.Mixer.Pulay

DM_history_depth set to one: no extrapolation allowed by default for geometry relaxation
Size of DM history Fstack: 1
Total number of electrons:   220.000000
Total ionic charge:   220.000000

* ProcessorY, Blocksize:    2  23


* Orbital distribution balance (max,min):    23    19

k-point displ. along   1 input, could be:     0.00    0.50
k-point displ. along   2 input, could be:     0.00    0.50
 Kpoints in:          480 . Kpoints trimmed:          480

siesta: k-grid: Number of k-points =   480
siesta: k-grid: Cutoff (effective) =    11.692 Ang
siesta: k-grid: Supercell and displacements
siesta: k-grid:    4   0   0      0.000
siesta: k-grid:    0   8   0      0.000
siesta: k-grid:    0   0  30      0.500

diag: Algorithm                                     = Expert
diag: Parallel over k                               =   F
diag: Use parallel 2D distribution                  =   T
diag: Parallel block-size                           = 23
diag: Parallel distribution                         =     2 x     4
diag: Used triangular part                          = Lower
diag: Absolute tolerance                            =  0.100E-15
diag: Orthogonalization factor                      =  0.100E-05
diag: Memory factor                                 =  1.0000

superc: Internal auxiliary supercell:     5 x     9 x     3  =     135
superc: Number of atoms, orbitals, and projectors:   2700  24300  43200

k-point displ. along   1 input, could be:     0.00    0.50
k-point displ. along   2 input, could be:     0.00    0.50
 Kpoints in:           20 . Kpoints trimmed:           19

transiesta: k-grid: Number of Green function k-points =    19
transiesta: k-grid: Supercell and displacements
transiesta: k-grid:    4   0   0      0.000
transiesta: k-grid:    0   8   0      0.000
transiesta: k-grid:    0   0   1      0.000

ts: **************************************************************
ts: Voltage                                         =    1.0000 Volts
ts: Save H and S matrices                           =    T
ts: Electronic temperature                          =   99.999269 K
ts: Transport along unit-cell vector                =    A3
ts: Transport along Cartesian vector                =    Z
ts: Fixing Hartree potential at electrode-plane     =    Right
ts: Fix Hartree potential fraction                  =    1.0000
ts: Hartree potential offset                        =    0.000000 eV
ts: Solution method                                 =    BTD
ts: BTD pivoting method                             =    atom+Left
ts: BTD creation algorithm                          =    speed
ts: BTD spectral function algorithm                 =    propagation
ts: SCF.TS DM tolerance                             = 0.100E-03
ts: SCF.TS Hamiltonian tolerance                    =    0.001000 eV
ts: Initialize DM by                                =    diagon
ts: Initial DM for electrodes                       =    this
ts: Hartree potential as linear ramp
ts: Hartree potential ramp across central region
ts: Thermal non-equilibrium in distributions        =    F
ts: Non-equilibrium contour weight method           =    orb-orb
ts: Non-equilibrium contour weight k-method         =    Correlated k-points
ts: Will not correct charge fluctuations
ts: TS.SCF mixing options same as SCF
ts:           >> Electrodes << 
ts: >> Left
ts:   Electrode cell pivoting: E1, E2, E3           = A1, A2, A3
ts:   GF file                                       = au_111_capacitor.TSGFLeft
ts:   Reuse existing GF-file                        =    F
ts:   Electrode TSHS file                           = ./elec_au_111_abc.TSHS
ts:   # atoms used in electrode                     =    3
ts:   Electrode Bloch repeating [E1 x E2 x E3]      = 2 x 1 x 1
ts:   Position in geometry                          = 1 -- 6
ts:   Semi-infinite direction for electrode         = negative wrt. E3
ts:   Chemical shift                                =    0.499999 eV
ts:   Electronic temperature                        =   99.999269 K
ts:   Gamma-only electrode                          =    F
ts:   Bulk H, S in electrode region                 =    T
ts:   Pre-expansion to reduce computation           = H, S, GS
ts:   Cross-terms are not updated
ts:   Hamiltonian E-C Ef fractional shift           =    0.0000
ts:   Electrode self-energy imaginary Eta           =  0.1000E-03  eV
ts:   Electrode self-energy accuracy                =  0.1000E-13  eV
ts:   Electrode inter-layer distance (semi-inf)     =    2.3867  Ang
ts: >> Right
ts:   Electrode cell pivoting: E1, E2, E3           = A1, A2, A3
ts:   GF file                                       = au_111_capacitor.TSGFRight
ts:   Reuse existing GF-file                        =    F
ts:   Electrode TSHS file                           = ./elec_au_111_abc.TSHS
ts:   # atoms used in electrode                     =    3
ts:   Electrode Bloch repeating [E1 x E2 x E3]      = 2 x 1 x 1
ts:   Position in geometry                          = 15 -- 20
ts:   Semi-infinite direction for electrode         = positive wrt. E3
ts:   Chemical shift                                =   -0.499999 eV
ts:   Electronic temperature                        =   99.999269 K
ts:   Gamma-only electrode                          =    F
ts:   Bulk H, S in electrode region                 =    T
ts:   Pre-expansion to reduce computation           = H, S, GS
ts:   Cross-terms are not updated
ts:   Hamiltonian E-C Ef fractional shift           =    0.0000
ts:   Electrode self-energy imaginary Eta           =  0.1000E-03  eV
ts:   Electrode self-energy accuracy                =  0.1000E-13  eV
ts:   Electrode inter-layer distance (semi-inf)     =    2.3867  Ang
ts:  ----------------- Contour ----------------- 
ts:            >> Residual contour << 
ts: Pole chemical potential                         =    0.5000 eV
ts:    Chemical potential temperature               =   99.9993 K
ts:    Number of poles                              =   47
ts:    Top energy point                             =    2.5448 eV
ts: Pole chemical potential                         =   -0.5000 eV
ts:    Chemical potential temperature               =   99.9993 K
ts:    Number of poles                              =   47
ts:    Top energy point                             =    2.5448 eV
ts:          >> Equilibrium contour << 
ts: Contour name                                    =    TS.Contour.c-Left
ts:   circle contour E_min                          =  -39.5000 eV
ts:   circle contour E_max                          =    0.4138 eV
ts:   circle contour points                         =   30
ts:   circle contour method                         =    Gauss-Legendre
ts: Contour name                                    =    TS.Contour.t-Left
ts:   tail contour E_min                            =    0.4138 eV
ts:   tail contour E_max                            =     Infinity
ts:   tail contour points                           =   10
ts:   tail contour method                           =    Gauss-Fermi (0kT)
ts: Contour name                                    =    TS.Contour.c-Right
ts:   circle contour E_min                          =  -40.5000 eV
ts:   circle contour E_max                          =   -0.5862 eV
ts:   circle contour points                         =   30
ts:   circle contour method                         =    Gauss-Legendre
ts: Contour name                                    =    TS.Contour.t-Right
ts:   tail contour E_min                            =   -0.5862 eV
ts:   tail contour E_max                            =     Infinity
ts:   tail contour points                           =   10
ts:   tail contour method                           =    Gauss-Fermi (0kT)
ts:         >> non-Equilibrium contour << 
ts: Device Green function imaginary Eta             = 0.1000E-03 eV
ts: Fermi-function cut-off                          =  5.000     kT
ts: Contour name                                    =    TS.Contour.nEq.neq
ts:   line contour E_min                            =   -0.5431 eV
ts:   line contour E_max                            =    0.5431 eV
ts:   line contour points                           =  109
ts:   line contour method                           =    Mid-rule
ts: **************************************************************

************************ Begin: TS CHECKS AND WARNINGS ************************
Without loosing performance you can increase the equilibrium integration precision.
You can add 2 more energy points in the equilibrium contours, for FREE!
This is 1 more energy points per chemical potential.
Without loosing performance you can increase the non-equilibrium integration precision.
You can add 3 more energy points in the non-equilibrium contours, for FREE!
Electrode Left will not update cross-terms or local region.
Electrode Right will not update cross-terms or local region.
************************ End: TS CHECKS AND WARNINGS **************************

                  ****************************************
                   TRANSIESTA REPORTED IMPORTANT WARNINGS
                  ****************************************

>>> TranSiesta block information for FDF-file START <<<

%block TS.ChemPots
  Left
  Right
%endblock TS.ChemPots

%block TS.ChemPot.Left
  mu  V/2
  contour.eq
   begin
    c-Left
    t-Left
   end
%endblock TS.ChemPot.Left
%block TS.ChemPot.Right
  mu  - V/2
  contour.eq
   begin
    c-Right
    t-Right
   end
%endblock TS.ChemPot.Right
%block TS.Contour.c-Left
  part circle
     from -40.00000 eV + V/2 to -10. kT + V/2
      points 30
        method g-legendre
%endblock TS.Contour.c-Left
%block TS.Contour.t-Left
  part tail
     from prev to + inf
      points 10
        method g-fermi
%endblock TS.Contour.t-Left
%block TS.Contour.c-Right
  part circle
     from -40.00000 eV - V/2 to -10. kT - V/2
      points 30
        method g-legendre
%endblock TS.Contour.c-Right
%block TS.Contour.t-Right
  part tail
     from prev to + inf
      points 10
        method g-fermi
%endblock TS.Contour.t-Right
%block TS.Contours.nEq
    neq
%endblock TS.Contours.nEq

%block TS.Contour.nEq.neq
  part line
     from - |V|/2 - 5 kT to |V|/2 + 5 kT
      delta 0.01 eV
        method mid-rule
%endblock TS.Contour.nEq.neq

>>> TranSiesta block information for FDF-file END <<<


transiesta: Regions of atoms:
   ## (6): Elec.Left
     [ 1 -- 6 ]
   ## (6): Elec.Right
     [ 15 -- 20 ]
   -- (8): Device
     [ 7 -- 14 ]

  <sparsity:./elec_au_111_abc.TSHS
    nrows_g=27 nrows=27 sparsity=44.2757 nnzs=32277, refcount: 3>
  <sparsity:(TM [--,--, 0] of: ./elec_au_111_abc.TSHS)
    nrows_g=27 nrows=27 sparsity=25.1152 nnzs=18309, refcount: 3>
  <sparsity:(TM [--,--,-1] of: ./elec_au_111_abc.TSHS)
    nrows_g=27 nrows=27 sparsity=9.4486 nnzs=6888, refcount: 3>
 Left principal cell is extending out with 96 elements:
    Atom 1 connects with atom 3
    Orbital 8 connects with orbital 26
    Hamiltonian value: |H(8,7046)|@R=-2 =  0.899E-20 eV
    Overlap          :  S(8,7046)|@R=-2 =   0.00    

Calculating all surface Green functions for: Left
 Fermi level shift in electrode (chemical potential) :        0.50000  eV
 Atoms available    / used atoms   :      3 /      3
 Orbitals available / used orbitals:     27 /     27
 Total self-energy calculations: 10754
 Bloch expansion k-points in A_1 direction [b_1] (w=1/2):
     0/2, 1/2
 Saving surface Green functions in: au_111_capacitor.TSGFLeft
 Estimated file size:    240.938 MB
 Lopez Sancho, Lopez Sancho & Rubio recursive surface self-energy calculation...
 Lopez Sancho, Lopez Sancho & Rubio: Mean/std iterations:     8.2276 /     6.0564
 Lopez Sancho, Lopez Sancho & Rubio: Min/Max iterations :          3 /         19
Done creating 'au_111_capacitor.TSGFLeft'.

  <sparsity:./elec_au_111_abc.TSHS
    nrows_g=27 nrows=27 sparsity=44.2757 nnzs=32277, refcount: 3>
  <sparsity:(TM [--,--, 0] of: ./elec_au_111_abc.TSHS)
    nrows_g=27 nrows=27 sparsity=25.1152 nnzs=18309, refcount: 3>
  <sparsity:(TM [--,--, 1] of: ./elec_au_111_abc.TSHS)
    nrows_g=27 nrows=27 sparsity=9.4486 nnzs=6888, refcount: 3>
 Right principal cell is extending out with 96 elements:
    Atom 3 connects with atom 1
    Orbital 26 connects with orbital 8
    Hamiltonian value: |H(26,6353)|@R=2 =  0.899E-20 eV
    Overlap          :  S(26,6353)|@R=2 =   0.00    

Calculating all surface Green functions for: Right
 Fermi level shift in electrode (chemical potential) :       -0.50000  eV
 Atoms available    / used atoms   :      3 /      3
 Orbitals available / used orbitals:     27 /     27
 Total self-energy calculations: 10754
 Bloch expansion k-points in A_1 direction [b_1] (w=1/2):
     0/2, 1/2
 Saving surface Green functions in: au_111_capacitor.TSGFRight
 Estimated file size:    240.938 MB
 Lopez Sancho, Lopez Sancho & Rubio recursive surface self-energy calculation...
 Lopez Sancho, Lopez Sancho & Rubio: Mean/std iterations:     9.5537 /     6.5523
 Lopez Sancho, Lopez Sancho & Rubio: Min/Max iterations :          3 /         19
Done creating 'au_111_capacitor.TSGFRight'.


                     ====================================
                        Single-point calculation
                     ====================================

superc: Internal auxiliary supercell:     5 x     9 x     3  =     135
superc: Number of atoms, orbitals, and projectors:   2700  24300  43200

outcell: Unit cell vectors (Ang):
        5.846220    0.000000    0.000000
        1.461555    2.531488    0.000000
        0.000000    0.000000   31.027221

outcell: Cell vector modules (Ang)   :    5.846220    2.923110   31.027221
outcell: Cell angles (23,13,12) (deg):     90.0000     90.0000     60.0000
outcell: Cell volume (Ang**3)        :    459.1915
<dSpData1D:S at geom step 0
  <sparsity:sparsity for geom step 0
    nrows_g=180 nrows=23 sparsity=.8156 nnzs=26425, refcount: 7>
  <dData1D:(new from dSpData1D) n=26425, refcount: 1>
refcount: 1>
new_DM -- step:     1
Initializing Density Matrix...

Attempting to read DM, EDM from TSDE file... Failed...
Attempting to read DM from file... Failed...
DM filled with atomic data:
<dSpData2D:DM initialized from atoms
  <sparsity:sparsity for geom step 0
    nrows_g=180 nrows=23 sparsity=.8156 nnzs=26425, refcount: 8>
  <dData2D:DM n=26425 m=1, refcount: 1>
refcount: 1>

transiesta: Initialization run using siesta

No. of atoms with KB's overlaping orbs in proc 0. Max # of overlaps:      71     237
New grid distribution:   1
           1       1:   30    1:    8    1:   45
           2       1:   30    1:    8   46:   90
           3       1:   30    1:    8   91:  135
           4       1:   30    1:    8  136:  180
           5       1:   30    9:   15    1:   45
           6       1:   30    9:   15   46:   90
           7       1:   30    9:   15   91:  135
           8       1:   30    9:   15  136:  180

InitMesh: MESH =    60 x    30 x   360 =      648000
InitMesh: (bp) =    30 x    15 x   180 =       81000
InitMesh: Mesh cutoff (required, used) =   350.000   372.067 Ry
ExtMesh (bp) on 0 =   122 x   100 x   137 =     1671400
New grid distribution:   2
           1       1:   30    1:   15  149:  164
           2       1:   30    1:   15   49:  115
           3       1:   30    1:   15    1:   16
           4       1:   30    1:   15  133:  148
           5       1:   30    1:   15   17:   32
           6       1:   30    1:   15   33:   48
           7       1:   30    1:   15  116:  132
           8       1:   30    1:   15  165:  180
New grid distribution:   3
           1       1:   30    1:   15    1:   21
           2       1:   30    1:   15   64:   96
           3       1:   30    1:   15   97:  117
           4       1:   30    1:   15  139:  159
           5       1:   30    1:   15   22:   42
           6       1:   30    1:   15   43:   63
           7       1:   30    1:   15  118:  138
           8       1:   30    1:   15  160:  180
Setting up quadratic distribution...
ExtMesh (bp) on 0 =   122 x   107 x   108 =     1409832
PhiOnMesh: Number of (b)points on node 0 =                 7200
PhiOnMesh: nlist on node 0 =               588170

ts: Using electrode: Right for Hartree correction
ts: Grid fraction plane  0.96154
ts: Grid point plane (Ang):       0.00000       0.00000      29.83387

ts-voltage: Ramp  0.500 eV to -0.500 eV placed between cell coordinates (Ang):
  {    0.000     0.000     5.171 } to {     0.000     0.000    23.357 }
ts-Vha: -0.11474E-05 eV

stepf: Fermi-Dirac step function
ts-Vha: -0.12177E+02 eV

siesta: Program's energy decomposition (eV):
siesta: Ebs     =       -11.258666
siesta: Eions   =     23424.498348
siesta: Ena     =      1167.255813
siesta: Ekin    =     12435.513601
siesta: Enl     =     -5721.873179
siesta: Eso     =         0.000000
siesta: Eldau   =         0.000000
siesta: DEna    =       235.767739
siesta: DUscf   =        23.188646
siesta: DUext   =         0.000000
siesta: Enegf   =         0.000000
siesta: Exc     =     -2796.311258
siesta: eta*DQ  =         0.000000
siesta: Emadel  =         0.000000
siesta: Emeta   =         0.000000
siesta: Emolmec =         0.000000
siesta: Ekinion =         0.000000
siesta: Eharris =    -18050.663343
siesta: Etot    =    -18080.956985
siesta: FreeEng =    -18080.960321

        iscf     Eharris(eV)        E_KS(eV)     FreeEng(eV)     dDmax    Ef(eV) dHmax(eV)
   scf:    1   -18050.663343   -18080.956985   -18080.960321  0.240188 -2.583999 19.974781
timer: Routine,Calls,Time,% = IterSCF        1      22.918  70.59
ts-Vha:  0.14971E+02 eV
   scf:    2   -18063.618224   -18080.938731   -18080.942392  0.050628 -2.391131 25.814919
ts-Vha:  0.39675E+01 eV
   scf:    3   -18088.609988   -18086.100288   -18086.104076  0.026031 -2.565114  9.663903
ts-Vha: -0.28362E+01 eV
   scf:    4   -18087.596960   -18087.468414   -18087.472132  0.020524 -2.734151  3.740204
ts-Vha:  0.45201E+01 eV
   scf:    5   -18087.435861   -18088.020893   -18088.025241  0.021225 -2.776468  9.514882
ts-Vha: -0.65219E+02 eV
   scf:    6   -17770.000802   -17987.273813   -17987.277497  0.145871 -4.685116106.970217
ts-Vha: -0.40097E+02 eV
   scf:    7   -18095.595387   -18048.720261   -18048.723978  0.069672 -3.353172 64.751737
ts-Vha: -0.39864E+02 eV
   scf:    8   -18057.129583   -18053.982937   -18053.986899  0.063951 -4.253999 62.513966
ts-Vha: -0.42023E+02 eV
   scf:    9   -18045.151965   -18049.631127   -18049.634867  0.007393 -4.266254 66.129034
ts-Vha: -0.50996E+02 eV
   scf:   10   -18008.585542   -18030.041356   -18030.045060  0.033795 -4.208398 79.997325
ts-Vha:  0.26767E+02 eV
   scf:   11   -17984.142706   -18075.105655   -18075.109045  0.221519 -3.498695 40.496762
ts-Vha:  0.14774E+02 eV
   scf:   12   -18094.299433   -18086.362782   -18086.370216  0.037525 -3.770005 22.309994
ts-Vha:  0.24188E+01 eV
   scf:   13   -18092.037419   -18090.950330   -18090.956676  0.034749 -3.917045  3.492011
ts-Vha: -0.27102E+01 eV
   scf:   14   -18090.003345   -18090.784768   -18090.790692  0.011862 -4.004903  4.930610
ts-Vha: -0.20767E+01 eV
   scf:   15   -18090.928864   -18090.861634   -18090.867280  0.003371 -4.035425  4.034464
ts-Vha: -0.28017E+00 eV
   scf:   16   -18091.105694   -18091.023819   -18091.029707  0.007402 -4.039308  1.359502
ts-Vha:  0.65734E+00 eV
   scf:   17   -18091.038843   -18091.062763   -18091.070399  0.016564 -3.876974  0.895188
ts-Vha:  0.37829E+00 eV
   scf:   18   -18091.090488   -18091.078027   -18091.085788  0.001844 -3.901866  0.432729
ts-Vha:  0.32343E+00 eV
   scf:   19   -18091.091437   -18091.084848   -18091.092642  0.000821 -3.916779  0.351736
ts-Vha:  0.25674E+00 eV
   scf:   20   -18091.118956   -18091.105671   -18091.113494  0.005130 -4.030765  0.117277
ts-Vha:  0.23669E+00 eV
   scf:   21   -18091.107285   -18091.106535   -18091.114367  0.000710 -4.035811  0.106690
ts-Vha:  0.24616E+00 eV
   scf:   22   -18091.108399   -18091.107517   -18091.115354  0.000942 -4.028632  0.062533
ts-Vha:  0.24053E+00 eV
   scf:   23   -18091.109690   -18091.108655   -18091.116493  0.001542 -4.023918  0.055692
ts-Vha:  0.23229E+00 eV
   scf:   24   -18091.110806   -18091.110033   -18091.117786  0.003429 -4.029548  0.033333
ts-Vha:  0.22412E+00 eV
   scf:   25   -18091.109759   -18091.109903   -18091.117663  0.000384 -4.032996  0.025754
ts-Vha:  0.22893E+00 eV
   scf:   26   -18091.110262   -18091.110105   -18091.117850  0.000638 -4.026929  0.029936
ts-Vha:  0.23028E+00 eV
   scf:   27   -18091.110084   -18091.110095   -18091.117844  0.000075 -4.027162  0.033275
ts-Vha:  0.22367E+00 eV
   scf:   28   -18091.110012   -18091.110056   -18091.117805  0.000155 -4.030185  0.021225
ts-Vha:  0.22326E+00 eV
   scf:   29   -18091.110034   -18091.110040   -18091.117783  0.000078 -4.031553  0.019030
ts-Vha:  0.21898E+00 eV
   scf:   30   -18091.110236   -18091.110146   -18091.117843  0.000871 -4.036248  0.014042
ts-Vha:  0.22096E+00 eV
   scf:   31   -18091.110373   -18091.110276   -18091.117925  0.000948 -4.036074  0.006712
ts-Vha:  0.22042E+00 eV
   scf:   32   -18091.110311   -18091.110295   -18091.117945  0.000121 -4.034105  0.005561
ts-Vha:  0.21952E+00 eV
   scf:   33   -18091.110302   -18091.110299   -18091.117953  0.000077 -4.033124  0.004324
ts-Vha:  0.21921E+00 eV
   scf:   34   -18091.110297   -18091.110299   -18091.117956  0.000049 -4.033181  0.003264
ts-Vha:  0.21934E+00 eV
   scf:   35   -18091.110297   -18091.110298   -18091.117958  0.000061 -4.034159  0.002053
ts-Vha:  0.21971E+00 eV
   scf:   36   -18091.110297   -18091.110297   -18091.117958  0.000019 -4.033987  0.001213
ts-Vha:  0.21969E+00 eV
   scf:   37   -18091.110295   -18091.110296   -18091.117959  0.000018 -4.034081  0.001068
ts-Vha:  0.21972E+00 eV
   scf:   38   -18091.110296   -18091.110296   -18091.117959  0.000002 -4.034042  0.000961

SCF Convergence by DM+H criterion
max |DM_out - DM_in|         :     0.0000020989
max |H_out - H_in|      (eV) :     0.0009609746
SCF cycle converged after 38 iterations

                     ***************************
                     *  WELCOME TO TRANSIESTA  *
                     ***************************

ts-Vha:  0.21972E+00 eV

transiesta: created H and S sparsity pattern:
  <sparsity:(M of: G ((UC of: T T T sparsity for geom step 0)))
    nrows_g=180 nrows=180 sparsity=.2632 nnzs=8528, refcount: 1>

transiesta: created local update sparsity pattern:
  <sparsity:(M of: T T T sparsity for geom step 0)
    nrows_g=180 nrows=23 sparsity=.0000 nnzs=0, refcount: 1>

transiesta: created update sparsity pattern:
  <sparsity:G ((UC of: (M of: T T T sparsity for geom step 0)))
    nrows_g=180 nrows=180 sparsity=.0800 nnzs=2592, refcount: 1>

transiesta: Determining an optimal tri-matrix using: atom+Left
transiesta: Established a near-optimal partition for the tri-diagonal matrix.
BTD partitions (4): 
  [ [45] * 4 ]
transiesta: Matrix elements in % of full matrix:  62.50000 %

transiesta: mem of electrodes (static):                     0.27MB
transiesta: mem of global update arrays (static):           0.42MB
transiesta: mem of master node sparse arrays:               0.00MB
transiesta: mem of tri-diagonal matrices:                   0.62MB
transiesta: Total memory usage:                             1.84MB

transiesta: Charge distribution, target =    220.00000
Total charge                  [Q]  :   220.00000
Device                        [D]  :    87.39473
Left                          [E1] :    65.39798
Left                 / device [C1] :     0.61650
Right                         [E2] :    65.39798
Right                / device [C2] :     0.61651
Other                         [O]  :     0.57630

ts-err-D: ij(   64,    64), M = 0.74933   , ew = -.35407E-2, em = 0.70813E-2. avg_em = 0.30239E-05
ts-err-E: ij(   64,    64), M = -3.2333   , ew = 0.71103E-3, em = 0.14221E-2. avg_em = 0.17196E-05
ts-w-q:               qP1       qP2
ts-w-q:            43.723    43.665
ts-q:         D        E1        C1        E2        C2        dQ
ts-q:    87.389    65.398     0.616    65.398     0.617 -6.001E-3
ts-Vha: -0.26737E-01 eV

siesta: Program's energy decomposition (eV):
siesta: Ebs     =     -1744.058647
siesta: Eions   =     23424.498348
siesta: Ena     =      1167.255813
siesta: Ekin    =     12730.536612
siesta: Enl     =     -5900.950026
siesta: Eso     =         0.000000
siesta: Eldau   =         0.000000
siesta: DEna    =       155.625884
siesta: DUscf   =        11.301990
siesta: DUext   =         0.000000
siesta: Enegf   =         0.029092
siesta: Exc     =     -2826.496356
siesta: eta*DQ  =         0.000000
siesta: Emadel  =         0.000000
siesta: Emeta   =         0.000000
siesta: Emolmec =         0.000000
siesta: Ekinion =         0.000000
siesta: Eharris =    -18079.522102
siesta: Etot    =    -18087.224430
siesta: FreeEng =    -18087.224430

        iscf     Eharris(eV)        E_KS(eV)     FreeEng(eV)     dDmax    Ef(eV) dHmax(eV)
ts-scf:    1   -18079.522102   -18087.224430   -18087.224430  0.051351 -4.034042 11.763920
timer: Routine,Calls,Time,% = TS             1       3.861   0.46
ts-err-D: ij(  107,   107), M = 0.31421E-1, ew = 0.70322E-3, em = 0.14064E-2. avg_em = 0.29627E-06
ts-err-E: ij(   98,  7127), M = -.29294E-3, ew = 0.35278E-3, em = -.70556E-3. avg_em = -.17810E-06
ts-w-q:               qP1       qP2
ts-w-q:            43.654    43.644
ts-q:         D        E1        C1        E2        C2        dQ
ts-q:    87.298    65.398     0.616    65.398     0.617 -9.668E-2
ts-Vha:  0.11337E+01 eV
ts-scf:    2   -18069.709125   -18086.120427   -18086.120427  0.098145 -4.034042 15.416189
ts-err-D: ij(   89,    89), M = 0.33248E-1, ew = -.17295E-2, em = 0.34591E-2. avg_em = 0.91230E-05
ts-err-E: ij(   89,    89), M = -.94817E-1, ew = 0.81460E-3, em = 0.16292E-2. avg_em = 0.37038E-05
ts-w-q:               qP1       qP2
ts-w-q:            43.723    43.682
ts-q:         D        E1        C1        E2        C2        dQ
ts-q:    87.404    65.398     0.616    65.398     0.617  9.626E-3
ts-Vha:  0.14524E+00 eV
ts-scf:    3   -18091.050029   -18090.898071   -18090.898071  0.058464 -4.034042  0.642566
ts-err-D: ij(   98,    98), M = 0.30006E-1, ew = 0.17408E-2, em = 0.34816E-2. avg_em = 0.85716E-05
ts-err-E: ij(   80,    80), M = -.94502E-1, ew = 0.77285E-3, em = 0.15457E-2. avg_em = 0.35297E-05
ts-w-q:               qP1       qP2
ts-w-q:            43.711    43.671
ts-q:         D        E1        C1        E2        C2        dQ
ts-q:    87.382    65.398     0.616    65.398     0.617 -1.224E-2
ts-Vha:  0.31805E+00 eV
ts-scf:    4   -18090.741867   -18090.824435   -18090.824435  0.002850 -4.034042  0.563009
ts-err-D: ij(   98,    98), M = 0.30861E-1, ew = -.17446E-2, em = 0.34892E-2. avg_em = 0.59018E-05
ts-err-E: ij(   98,  5678), M = 0.35009E-3, ew = -.79306E-3, em = -.15861E-2. avg_em = 0.24392E-05
ts-w-q:               qP1       qP2
ts-w-q:            43.714    43.680
ts-q:         D        E1        C1        E2        C2        dQ
ts-q:    87.393    65.398     0.616    65.398     0.617 -1.337E-3
ts-Vha:  0.20192E+00 eV
ts-scf:    5   -18090.938393   -18090.892868   -18090.892868  0.007238 -4.034042  0.318639
ts-err-D: ij(   98,    98), M = 0.30868E-1, ew = 0.17487E-2, em = 0.34973E-2. avg_em = 0.59180E-05
ts-err-E: ij(   98,  5678), M = 0.35359E-3, ew = -.79275E-3, em = -.15855E-2. avg_em = 0.24512E-05
ts-w-q:               qP1       qP2
ts-w-q:            43.711    43.677
ts-q:         D        E1        C1        E2        C2        dQ
ts-q:    87.387    65.398     0.616    65.398     0.617 -7.428E-3
ts-Vha:  0.24731E+00 eV
ts-scf:    6   -18090.835339   -18090.867653   -18090.867653  0.001453 -4.034042  0.042557
ts-err-D: ij(   98,    98), M = 0.30891E-1, ew = 0.17361E-2, em = 0.34722E-2. avg_em = 0.58483E-05
ts-err-E: ij(   98,  5678), M = 0.35444E-3, ew = -.79149E-3, em = -.15830E-2. avg_em = 0.24241E-05
ts-w-q:               qP1       qP2
ts-w-q:            43.711    43.677
ts-q:         D        E1        C1        E2        C2        dQ
ts-q:    87.388    65.398     0.616    65.398     0.617 -6.325E-3
ts-Vha:  0.24132E+00 eV
ts-scf:    7   -18090.874914   -18090.870462   -18090.870462  0.000657 -4.034042  0.090920
ts-err-D: ij(   98,    98), M = 0.30983E-1, ew = 0.17376E-2, em = 0.34752E-2. avg_em = 0.58659E-05
ts-err-E: ij(   98,  5678), M = 0.34498E-3, ew = -.79990E-3, em = -.15998E-2. avg_em = 0.24420E-05
ts-w-q:               qP1       qP2
ts-w-q:            43.712    43.678
ts-q:         D        E1        C1        E2        C2        dQ
ts-q:    87.390    65.398     0.616    65.398     0.617 -5.027E-3
ts-Vha:  0.23176E+00 eV
ts-scf:    8   -18090.870243   -18090.870972   -18090.870972  0.001140 -4.034042  0.021549
ts-err-D: ij(   98,    98), M = 0.30979E-1, ew = 0.17371E-2, em = 0.34741E-2. avg_em = 0.58242E-05
ts-err-E: ij(   98,  5678), M = 0.34558E-3, ew = -.79945E-3, em = -.15989E-2. avg_em = 0.24217E-05
ts-w-q:               qP1       qP2
ts-w-q:            43.711    43.678
ts-q:         D        E1        C1        E2        C2        dQ
ts-q:    87.389    65.398     0.616    65.398     0.617 -5.771E-3
ts-Vha:  0.24013E+00 eV
ts-scf:    9   -18090.864452   -18090.867819   -18090.867819  0.000061 -4.034042  0.020072
ts-err-D: ij(   98,    98), M = 0.30973E-1, ew = 0.17364E-2, em = 0.34729E-2. avg_em = 0.58214E-05
ts-err-E: ij(   98,  5678), M = 0.34522E-3, ew = -.79919E-3, em = -.15984E-2. avg_em = 0.24188E-05
ts-w-q:               qP1       qP2
ts-w-q:            43.712    43.678
ts-q:         D        E1        C1        E2        C2        dQ
ts-q:    87.390    65.398     0.616    65.398     0.617 -4.974E-3
ts-Vha:  0.23981E+00 eV
ts-scf:   10   -18090.873357   -18090.870585   -18090.870585  0.000220 -4.034042  0.010618
ts-err-D: ij(   98,    98), M = 0.30972E-1, ew = 0.17365E-2, em = 0.34729E-2. avg_em = 0.58578E-05
ts-err-E: ij(   98,  5678), M = 0.34483E-3, ew = -.79928E-3, em = -.15986E-2. avg_em = 0.24356E-05
ts-w-q:               qP1       qP2
ts-w-q:            43.712    43.678
ts-q:         D        E1        C1        E2        C2        dQ
ts-q:    87.390    65.398     0.616    65.398     0.617 -4.729E-3
ts-Vha:  0.23786E+00 eV
ts-scf:   11   -18090.872324   -18090.871390   -18090.871390  0.000054 -4.034042  0.006583
ts-err-D: ij(   98,    98), M = 0.30981E-1, ew = 0.17376E-2, em = 0.34753E-2. avg_em = 0.59293E-05
ts-err-E: ij(   98,  5678), M = 0.34250E-3, ew = -.80072E-3, em = -.16014E-2. avg_em = 0.24688E-05
ts-w-q:               qP1       qP2
ts-w-q:            43.712    43.678
ts-q:         D        E1        C1        E2        C2        dQ
ts-q:    87.390    65.398     0.616    65.398     0.617 -4.580E-3
ts-Vha:  0.23701E+00 eV
ts-scf:   12   -18090.870570   -18090.870952   -18090.870952  0.000225 -4.034042  0.004022
ts-err-D: ij(   98,    98), M = 0.30983E-1, ew = 0.17377E-2, em = 0.34753E-2. avg_em = 0.59566E-05
ts-err-E: ij(   98,  5678), M = 0.34191E-3, ew = -.80099E-3, em = -.16020E-2. avg_em = 0.24815E-05
ts-w-q:               qP1       qP2
ts-w-q:            43.712    43.678
ts-q:         D        E1        C1        E2        C2        dQ
ts-q:    87.390    65.398     0.616    65.398     0.617 -4.607E-3
ts-Vha:  0.23717E+00 eV
ts-scf:   13   -18090.870020   -18090.870490   -18090.870490  0.000080 -4.034042  0.002646
ts-err-D: ij(   98,    98), M = 0.30983E-1, ew = 0.17372E-2, em = 0.34744E-2. avg_em = 0.60361E-05
ts-err-E: ij(   98,  5678), M = 0.34120E-3, ew = -.80098E-3, em = -.16020E-2. avg_em = 0.25179E-05
ts-w-q:               qP1       qP2
ts-w-q:            43.712    43.678
ts-q:         D        E1        C1        E2        C2        dQ
ts-q:    87.390    65.398     0.616    65.398     0.617 -4.582E-3
ts-Vha:  0.23672E+00 eV
ts-scf:   14   -18090.869418   -18090.869968   -18090.869968  0.000170 -4.034042  0.002811
ts-err-D: ij(   98,    98), M = 0.30984E-1, ew = 0.17371E-2, em = 0.34743E-2. avg_em = 0.60482E-05
ts-err-E: ij(   98,  5678), M = 0.34112E-3, ew = -.80099E-3, em = -.16020E-2. avg_em = 0.25236E-05
ts-w-q:               qP1       qP2
ts-w-q:            43.712    43.678
ts-q:         D        E1        C1        E2        C2        dQ
ts-q:    87.390    65.398     0.616    65.398     0.617 -4.717E-3
ts-Vha:  0.23723E+00 eV
ts-scf:   15   -18090.868739   -18090.869366   -18090.869366  0.000024 -4.034042  0.001698
ts-err-D: ij(   98,    98), M = 0.30985E-1, ew = 0.17371E-2, em = 0.34743E-2. avg_em = 0.60536E-05
ts-err-E: ij(   98,  5678), M = 0.34097E-3, ew = -.80106E-3, em = -.16021E-2. avg_em = 0.25262E-05
ts-w-q:               qP1       qP2
ts-w-q:            43.712    43.678
ts-q:         D        E1        C1        E2        C2        dQ
ts-q:    87.390    65.398     0.616    65.398     0.617 -4.739E-3
ts-Vha:  0.23728E+00 eV
ts-scf:   16   -18090.869059   -18090.869217   -18090.869217  0.000016 -4.034042  0.001107
ts-err-D: ij(   98,    98), M = 0.30985E-1, ew = 0.17372E-2, em = 0.34743E-2. avg_em = 0.60518E-05
ts-err-E: ij(   98,  5678), M = 0.34096E-3, ew = -.80108E-3, em = -.16022E-2. avg_em = 0.25254E-05
ts-w-q:               qP1       qP2
ts-w-q:            43.712    43.678
ts-q:         D        E1        C1        E2        C2        dQ
ts-q:    87.390    65.398     0.616    65.398     0.617 -4.744E-3
ts-Vha:  0.23728E+00 eV
ts-scf:   17   -18090.869235   -18090.869225   -18090.869225  0.000004 -4.034042  0.001143
ts-err-D: ij(   98,    98), M = 0.30987E-1, ew = 0.17371E-2, em = 0.34743E-2. avg_em = 0.60616E-05
ts-err-E: ij(   98,  5678), M = 0.34061E-3, ew = -.80125E-3, em = -.16025E-2. avg_em = 0.25301E-05
ts-w-q:               qP1       qP2
ts-w-q:            43.712    43.678
ts-q:         D        E1        C1        E2        C2        dQ
ts-q:    87.390    65.398     0.616    65.398     0.617 -4.757E-3
ts-Vha:  0.23725E+00 eV
ts-scf:   18   -18090.868979   -18090.869107   -18090.869107  0.000037 -4.034042  0.000814

SCF Convergence by DM+H criterion
max |DM_out - DM_in|         :     0.0000373521
max |H_out - H_in|      (eV) :     0.0008140608
SCF cycle converged after 18 iterations

Using DM_out to compute the final energy and forces
No. of atoms with KB's overlaping orbs in proc 0. Max # of overlaps:      71     237
ts-Vha:  0.23725E+00 eV

siesta: E_KS(eV) =           -18090.8691

siesta: E_KS - E_eggbox =    -18090.8691

siesta: Atomic forces (eV/Ang):
----------------------------------------
   Tot    0.000000    0.000000    0.349477
----------------------------------------
   Max    0.253743
   Res    0.063854    sqrt( Sum f_i^2 / 3N )
----------------------------------------
   Max    0.253743    constrained

Stress-tensor-Voigt (kbar):       40.63       40.63       28.89        0.00       -0.00       -0.00
(Free)E + p*V (eV/cell)   -18101.3925
Target enthalpy (eV/cell)   -18090.8691

mulliken: Atomic and Orbital Populations:

Species: Au                  
Atom  Qatom  Qorb
               6s      5dxy    5dyz    5dz2    5dxz    5dx2-y2 6Ppy    6Ppz    
               6Ppx    
   1 11.002   1.005   1.907   1.918   1.892   1.918   1.907   0.152   0.150
              0.152
   2 11.002   1.005   1.907   1.918   1.892   1.918   1.907   0.152   0.150
              0.152
   3 10.996   0.996   1.906   1.923   1.889   1.923   1.906   0.151   0.153
              0.151
   4 10.996   0.996   1.906   1.923   1.889   1.923   1.906   0.151   0.153
              0.151
   5 10.999   1.003   1.909   1.918   1.890   1.918   1.909   0.153   0.147
              0.153
   6 10.999   1.003   1.909   1.918   1.890   1.918   1.909   0.153   0.147
              0.153
   7 10.974   0.987   1.907   1.927   1.887   1.927   1.907   0.147   0.136
              0.147
   8 10.974   0.987   1.907   1.927   1.887   1.927   1.907   0.147   0.136
              0.147
   9 11.031   1.060   1.890   1.938   1.926   1.938   1.890   0.139   0.112
              0.139
  10 11.031   1.060   1.890   1.938   1.926   1.938   1.890   0.139   0.112
              0.139
  11 11.022   1.055   1.890   1.938   1.925   1.938   1.890   0.138   0.111
              0.138
  12 11.022   1.055   1.890   1.938   1.925   1.938   1.890   0.138   0.111
              0.138
  13 10.976   0.985   1.907   1.928   1.887   1.928   1.907   0.148   0.139
              0.148
  14 10.976   0.985   1.907   1.928   1.887   1.928   1.907   0.148   0.139
              0.148
  15 10.999   1.003   1.909   1.918   1.890   1.918   1.909   0.153   0.147
              0.153
  16 10.999   1.003   1.909   1.918   1.890   1.918   1.909   0.153   0.147
              0.153
  17 10.996   0.996   1.906   1.923   1.889   1.923   1.906   0.151   0.153
              0.151
  18 10.996   0.996   1.906   1.923   1.889   1.923   1.906   0.151   0.153
              0.151
  19 11.002   1.005   1.907   1.918   1.892   1.918   1.907   0.152   0.150
              0.152
  20 11.002   1.005   1.907   1.918   1.892   1.918   1.907   0.152   0.150
              0.152

mulliken: Qtot =      219.995

coxmol: Writing XMOL coordinates into file au_111_capacitor.xyz                                                

siesta: Program's energy decomposition (eV):
siesta: Ebs     =     -1797.539108
siesta: Eions   =     23424.498348
siesta: Ena     =      1167.255813
siesta: Ekin    =     12731.704524
siesta: Enl     =     -5901.671648
siesta: Eso     =         0.000000
siesta: Eldau   =         0.000000
siesta: DEna    =       155.311276
siesta: DUscf   =         7.647012
siesta: DUext   =         0.000000
siesta: Enegf   =         0.017036
siesta: Exc     =     -2826.617737
siesta: eta*DQ  =         0.000000
siesta: Emadel  =         0.000000
siesta: Emeta   =         0.000000
siesta: Emolmec =         0.000000
siesta: Ekinion =         0.000000
siesta: Eharris =    -18090.868979
siesta: Etot    =    -18090.869107
siesta: FreeEng =    -18090.869107

siesta: Final energy (eV):
siesta:  Band Struct. =   -1797.539108
siesta:       Kinetic =   12731.704524
siesta:       Hartree =   43102.437060
siesta:       Eldau   =       0.000000
siesta:       Eso     =       0.000000
siesta:    Ext. field =       0.000000
siesta:       Enegf   =       0.017036
siesta:   Exch.-corr. =   -2826.617737
siesta:  Ion-electron =  -97024.266431
siesta:       Ion-ion =   25925.873477
siesta:       Ekinion =       0.000000
siesta:         Total =  -18090.869107
siesta:         Fermi =      -4.034042

siesta: Atomic forces (eV/Ang):
siesta:      1   -0.000000   -0.000000    0.147650
siesta:      2    0.000000   -0.000000    0.147650
siesta:      3   -0.000000   -0.000000    0.005882
siesta:      4   -0.000000   -0.000000    0.005882
siesta:      5    0.000001    0.000001    0.014016
siesta:      6    0.000001    0.000001    0.014016
siesta:      7   -0.000005   -0.000009   -0.178551
siesta:      8   -0.000005   -0.000009   -0.178551
siesta:      9    0.000005    0.000007   -0.036572
siesta:     10    0.000005    0.000007   -0.036572
siesta:     11   -0.000007   -0.000010    0.025489
siesta:     12   -0.000007   -0.000010    0.025489
siesta:     13    0.000007    0.000011    0.253743
siesta:     14    0.000007    0.000011    0.253743
siesta:     15   -0.000001   -0.000001   -0.021297
siesta:     16   -0.000001   -0.000001   -0.021297
siesta:     17    0.000000    0.000000    0.003940
siesta:     18    0.000000    0.000000    0.003940
siesta:     19    0.000000    0.000000   -0.039561
siesta:     20   -0.000000    0.000000   -0.039561
siesta: ----------------------------------------
siesta:    Tot    0.000000    0.000000    0.349477

siesta: Stress tensor (static) (eV/Ang**3):
siesta:     0.025360    0.000000   -0.000000
siesta:     0.000000    0.025360   -0.000000
siesta:    -0.000000   -0.000000    0.018031

siesta: Cell volume =        459.191485 Ang**3

siesta: Pressure (static):
siesta:                Solid            Molecule  Units
siesta:          -0.00024960         -0.00025514  Ry/Bohr**3
siesta:          -0.02291724         -0.02342582  eV/Ang**3
siesta:         -36.71786505        -37.53269918  kBar
(Free)E+ p_basis*V_orbitals  =      -18077.010634
(Free)Eharris+ p_basis*V_orbitals  =      -18077.010507
ts-Vha:  0.23725E+00 eV

dhscf: Vacuum level (max, mean) =    1.150584    0.979113 eV
>> End of run:   5-NOV-2018  14:20:11
Job completed
