PARALLEL version
NetCDF support

* Running on    8 nodes in parallel
>> Start of run:  13-JUN-2018  22:48:31

                           ************************ 
                           *  WELCOME TO TBTrans  * 
                           ************************ 

reinit: Reading from standard input
************************** Dump of input data file ****************************
SystemName  au_111_capacitor
SystemLabel au_111_capacitor
==================================================
==================================================
# SPECIES AND BASIS
# Number of species
NumberOfSpecies 1
%block ChemicalSpeciesLabel
  1  79 Au
%endblock ChemicalSpeciesLabel
PAO.BasisSize    SZP
PAO.EnergyShift  0.005 Ry
==================================================
==================================================
# K-points
%block kgrid_Monkhorst_Pack
4   0   0   0.0
0   8   0   0.0
0   0   30  0.5
%endblock kgrid_Monkhorst_Pack
==================================================
==================================================
# UNIT CELL
LatticeConstant       2.92311 Ang
%block LatticeVectors
2.000000000   0.00000000000   0.0000000000
0.500000000   0.86602540378   0.0000000000
0.000000000   0.00000000000  10.6144555530
%endblock LatticeVectors
# Atomic coordinates
NumberOfAtoms 20
AtomicCoordinatesFormat ScaledCartesian
%block AtomicCoordinatesAndAtomicSpecies
       0.000000000       0.000000000       0.000000000    1  # A
       1.000000000       0.000000000       0.000000000    1  # A
       0.500000000       0.288675135       0.816496581    1  # B
       1.500000000       0.288675135       0.816496581    1  # B
       0.500000000      -0.288675135       1.632993162    1  # C
       1.500000000      -0.288675135       1.632993162    1  # C
       0.000000000       0.000000000       2.449489743    1  # A
       1.000000000       0.000000000       2.449489743    1  # A
       0.500000000       0.288675135       3.265986324    1  # B
       1.500000000       0.288675135       3.265986324    1  # B
       0.500000000       0.288675135       6.531972648    1  # B
       1.500000000       0.288675135       6.531972648    1  # B
       0.500000000      -0.288675135       7.348469229    1  # C
       1.500000000      -0.288675135       7.348469229    1  # C
       0.000000000       0.000000000       8.164965810    1  # A
       1.000000000       0.000000000       8.164965810    1  # A
       0.500000000       0.288675135       8.981462391    1  # B
       1.500000000       0.288675135       8.981462391    1  # B
       0.500000000      -0.288675135       9.797958972    1  # C
       1.500000000      -0.288675135       9.797958972    1  # C
%endblock AtomicCoordinatesAndAtomicSpecies
==================================================
==================================================
# General variables
ElectronicTemperature  100 K
MeshCutoff           350. Ry
xc.functional         LDA           # Exchange-correlation functional
xc.authors            CA
SpinPolarized .false.
SolutionMethod Transiesta
==================================================
==================================================
# SCF variables
DM.MixSCF1   T
MaxSCFIterations      300           # Maximum number of SCF iter
DM.MixingWeight       0.03          # New DM amount for next SCF cycle
DM.Tolerance          1.d-4         # Tolerance in maximum difference
DM.UseSaveDM          true          # to use continuation files
DM.NumberPulay         5
Diag.DivideAndConquer     no
TS.MixH                  yes
==================================================
==================================================
# MD variables
MD.FinalTimeStep 1
MD.TypeOfRun CG
MD.NumCGsteps     000
MD.UseSaveXV      .true.
==================================================
==================================================
# Output variables
WriteMullikenPop                1
WriteBands                      .false.
SaveRho                         .false.
SaveDeltaRho                    .false.
SaveHS                          .false.
SaveElectrostaticPotential      True
SaveTotalPotential              no
WriteCoorXmol                   .true.
WriteMDXmol                     .true.
WriteMDhistory                  .false.
WriteEigenvalues                yes
==================================================
==================================================
# Parallel variables
Diag.ParallelOverK      no # Messes with the diagonalization...
==================================================
==================================================
# Transiesta information
# GF OPTIONS
TS.ComplexContour.Emin    -30.0 eV
TS.ComplexContour.NPoles       03
TS.ComplexContour.NCircle      30
TS.ComplexContour.NLine        10
# BIAS OPTIONS
TS.biasContour.NumPoints       15
TS.UpdateDMCROnly        false
# TS OPTIONS
TS.Voltage 1.000000 eV
# TBT OPTIONS
TS.TBT.Emin -0.5 eV
TS.TBT.Emax +0.5 eV
TS.TBT.NPoints 100
TS.TBT.NEigen 3
TS.TBT.Eta        0.000001 Ry
# Write hamiltonian
TS.SaveHS   .true.
# LEFT ELECTRODE
TS.HSFileLeft  ./elec_au_111_abc.TSHS
TS.ReplicateA1Left    2
TS.ReplicateA2Left    1
TS.NumUsedAtomsLeft   03
TS.BufferAtomsLeft    0
# RIGHT ELECTRODE
TS.HSFileRight  ./elec_au_111_abc.TSHS
TS.ReplicateA1Right   2
TS.ReplicateA2Right   1
TS.NumUsedAtomsRight  03
TS.BufferAtomsRight   0
==================================================
==================================================
************************** End of input data file *****************************

reinit: -----------------------------------------------------------------------
reinit: System Name: au_111_capacitor
reinit: -----------------------------------------------------------------------
reinit: System Label: au_111_capacitor                                            
reinit: -----------------------------------------------------------------------
redata: Non-Collinear-spin run           =     F
redata: SpinPolarized (Up/Down) run      =     F
redata: Number of spin components        =     1

tbt_read_options: **************************************************************
TBTrans Voltage                               =    1.0000 V
TBTrans Emin                                  =   -0.5000 eV
TBTrans Emax                                  =    0.5000 eV
Bulk Values in Electrodes                     =    T
Buffer Atoms in Left electrode                =    0
Buffer Atoms in Right electrode               =    0
Points on the energy contour                  =  100
GFEta                                         =    0.000001 Ry
Electronic Temperature                        =    0.0006 Ry
Calculate band bottom in elecrodes            =    T
GF title                                      =    Generated GF file
Left GF File                                  =    au_111_capacitor.TBTGFL
Right GF File                                 =    au_111_capacitor.TBTGFR
Re-use the GF files if they exists            =    T
Scattering region TSHS file                   =    au_111_capacitor.TSHS
Left electrode TSHS file                      =    ./elec_au_111_abc.TSHS
# atoms used in left elec.                    =     3
Left elec. repetition A1/A2                   =   2 X   1
Right electrode TSHS file                     =    ./elec_au_111_abc.TSHS
# atoms used in right elec.                   =     3
Right elec. repetition A1/A2                  =   2 X   1
Projected region                              = [    7;   14]
Calculate DOS on projected atoms              =     F
Calculate COOP                                =     F
Align the Hamiltonian with the electrode      =     F
Remove inner-cell distances in the Hamiltonian=     F
tbt_read_options: **************************************************************

 NOTICE: Transport energy points are not
         divisable by the number of nodes.
         Better scalability is achived by changing:
           - TS.TBT.NPoints
         Used # of energy points   :  100
         Optimal equilibrium # of energy points:  104 ± i*  8

transiesta: contour integration path:
 Type         Re(c)[eV]    Im(c)[eV]     Re(weight)     Im(weight)
 Transport:
 trans  :      -0.49500      0.00001    0.000734980    0.000000000
 trans  :      -0.48500      0.00001    0.000734980    0.000000000
 trans  :      -0.47500      0.00001    0.000734980    0.000000000
 trans  :      -0.46500      0.00001    0.000734980    0.000000000
 trans  :      -0.45500      0.00001    0.000734980    0.000000000
 trans  :      -0.44500      0.00001    0.000734980    0.000000000
 trans  :      -0.43500      0.00001    0.000734980    0.000000000
 trans  :      -0.42500      0.00001    0.000734980    0.000000000
 trans  :      -0.41500      0.00001    0.000734980    0.000000000
 trans  :      -0.40500      0.00001    0.000734980    0.000000000
 trans  :      -0.39500      0.00001    0.000734980    0.000000000
 trans  :      -0.38500      0.00001    0.000734980    0.000000000
 trans  :      -0.37500      0.00001    0.000734980    0.000000000
 trans  :      -0.36500      0.00001    0.000734980    0.000000000
 trans  :      -0.35500      0.00001    0.000734980    0.000000000
 trans  :      -0.34500      0.00001    0.000734980    0.000000000
 trans  :      -0.33500      0.00001    0.000734980    0.000000000
 trans  :      -0.32500      0.00001    0.000734980    0.000000000
 trans  :      -0.31500      0.00001    0.000734980    0.000000000
 trans  :      -0.30500      0.00001    0.000734980    0.000000000
 trans  :      -0.29500      0.00001    0.000734980    0.000000000
 trans  :      -0.28500      0.00001    0.000734980    0.000000000
 trans  :      -0.27500      0.00001    0.000734980    0.000000000
 trans  :      -0.26500      0.00001    0.000734980    0.000000000
 trans  :      -0.25500      0.00001    0.000734980    0.000000000
 trans  :      -0.24500      0.00001    0.000734980    0.000000000
 trans  :      -0.23500      0.00001    0.000734980    0.000000000
 trans  :      -0.22500      0.00001    0.000734980    0.000000000
 trans  :      -0.21500      0.00001    0.000734980    0.000000000
 trans  :      -0.20500      0.00001    0.000734980    0.000000000
 trans  :      -0.19500      0.00001    0.000734980    0.000000000
 trans  :      -0.18500      0.00001    0.000734980    0.000000000
 trans  :      -0.17500      0.00001    0.000734980    0.000000000
 trans  :      -0.16500      0.00001    0.000734980    0.000000000
 trans  :      -0.15500      0.00001    0.000734980    0.000000000
 trans  :      -0.14500      0.00001    0.000734980    0.000000000
 trans  :      -0.13500      0.00001    0.000734980    0.000000000
 trans  :      -0.12500      0.00001    0.000734980    0.000000000
 trans  :      -0.11500      0.00001    0.000734980    0.000000000
 trans  :      -0.10500      0.00001    0.000734980    0.000000000
 trans  :      -0.09500      0.00001    0.000734980    0.000000000
 trans  :      -0.08500      0.00001    0.000734980    0.000000000
 trans  :      -0.07500      0.00001    0.000734980    0.000000000
 trans  :      -0.06500      0.00001    0.000734980    0.000000000
 trans  :      -0.05500      0.00001    0.000734980    0.000000000
 trans  :      -0.04500      0.00001    0.000734980    0.000000000
 trans  :      -0.03500      0.00001    0.000734980    0.000000000
 trans  :      -0.02500      0.00001    0.000734980    0.000000000
 trans  :      -0.01500      0.00001    0.000734980    0.000000000
 trans  :      -0.00500      0.00001    0.000734980    0.000000000
 trans  :       0.00500      0.00001    0.000734980    0.000000000
 trans  :       0.01500      0.00001    0.000734980    0.000000000
 trans  :       0.02500      0.00001    0.000734980    0.000000000
 trans  :       0.03500      0.00001    0.000734980    0.000000000
 trans  :       0.04500      0.00001    0.000734980    0.000000000
 trans  :       0.05500      0.00001    0.000734980    0.000000000
 trans  :       0.06500      0.00001    0.000734980    0.000000000
 trans  :       0.07500      0.00001    0.000734980    0.000000000
 trans  :       0.08500      0.00001    0.000734980    0.000000000
 trans  :       0.09500      0.00001    0.000734980    0.000000000
 trans  :       0.10500      0.00001    0.000734980    0.000000000
 trans  :       0.11500      0.00001    0.000734980    0.000000000
 trans  :       0.12500      0.00001    0.000734980    0.000000000
 trans  :       0.13500      0.00001    0.000734980    0.000000000
 trans  :       0.14500      0.00001    0.000734980    0.000000000
 trans  :       0.15500      0.00001    0.000734980    0.000000000
 trans  :       0.16500      0.00001    0.000734980    0.000000000
 trans  :       0.17500      0.00001    0.000734980    0.000000000
 trans  :       0.18500      0.00001    0.000734980    0.000000000
 trans  :       0.19500      0.00001    0.000734980    0.000000000
 trans  :       0.20500      0.00001    0.000734980    0.000000000
 trans  :       0.21500      0.00001    0.000734980    0.000000000
 trans  :       0.22500      0.00001    0.000734980    0.000000000
 trans  :       0.23500      0.00001    0.000734980    0.000000000
 trans  :       0.24500      0.00001    0.000734980    0.000000000
 trans  :       0.25500      0.00001    0.000734980    0.000000000
 trans  :       0.26500      0.00001    0.000734980    0.000000000
 trans  :       0.27500      0.00001    0.000734980    0.000000000
 trans  :       0.28500      0.00001    0.000734980    0.000000000
 trans  :       0.29500      0.00001    0.000734980    0.000000000
 trans  :       0.30500      0.00001    0.000734980    0.000000000
 trans  :       0.31500      0.00001    0.000734980    0.000000000
 trans  :       0.32500      0.00001    0.000734980    0.000000000
 trans  :       0.33500      0.00001    0.000734980    0.000000000
 trans  :       0.34500      0.00001    0.000734980    0.000000000
 trans  :       0.35500      0.00001    0.000734980    0.000000000
 trans  :       0.36500      0.00001    0.000734980    0.000000000
 trans  :       0.37500      0.00001    0.000734980    0.000000000
 trans  :       0.38500      0.00001    0.000734980    0.000000000
 trans  :       0.39500      0.00001    0.000734980    0.000000000
 trans  :       0.40500      0.00001    0.000734980    0.000000000
 trans  :       0.41500      0.00001    0.000734980    0.000000000
 trans  :       0.42500      0.00001    0.000734980    0.000000000
 trans  :       0.43500      0.00001    0.000734980    0.000000000
 trans  :       0.44500      0.00001    0.000734980    0.000000000
 trans  :       0.45500      0.00001    0.000734980    0.000000000
 trans  :       0.46500      0.00001    0.000734980    0.000000000
 trans  :       0.47500      0.00001    0.000734980    0.000000000
 trans  :       0.48500      0.00001    0.000734980    0.000000000
 trans  :       0.49500      0.00001    0.000734980    0.000000000

 
Atomic coordinates and regions (Ang):
##############################################
#     0.0000000     0.0000000     0.0000000  #
#     2.9231100     0.0000000     0.0000000  #
#     1.4615550     0.8438292     2.3867093  #     Left electrode
#     4.3846650     0.8438292     2.3867093  #
#     1.4615550    -0.8438292     4.7734186  #
#     4.3846650    -0.8438292     4.7734186  #
##############################################
      0.0000000     0.0000000     7.1601280   *
      2.9231100     0.0000000     7.1601280   *
      1.4615550     0.8438292     9.5468373   *
      4.3846650     0.8438292     9.5468373   *    Device
      1.4615550     0.8438292    19.0936746   *
      4.3846650     0.8438292    19.0936746   *
      1.4615550    -0.8438292    21.4803839   *
      4.3846650    -0.8438292    21.4803839   *
##############################################
#     0.0000000     0.0000000    23.8670932  #
#     2.9231100     0.0000000    23.8670932  #
#     1.4615550     0.8438292    26.2538025  #     Right electrode
#     4.3846650     0.8438292    26.2538025  #
#     1.4615550    -0.8438292    28.6405119  #
#     4.3846650    -0.8438292    28.6405119  #
##############################################
 
k-point displ. along   1 input, could be:     0.00    0.50
k-point displ. along   2 input, could be:     0.00    0.50

TBtrans: k-grid: Number of Transport k-points =    20
TBtrans: k-grid: Supercell and displacements
TBtrans: k-grid:    4   0   0      0.000
TBTrans: k-grid:    0   8   0      0.000


TBTrans: k-point coordinates (Bohr**-1) and weights:
TBtrans:    1   -0.142182    0.082089    0.000000       0.031250
TBtrans:    2    0.000000    0.000000    0.000000       0.031250
TBtrans:    3    0.142182   -0.082089    0.000000       0.031250
TBtrans:    4    0.284365   -0.164178    0.000000       0.031250
TBtrans:    5   -0.142182    0.246267    0.000000       0.062500
TBtrans:    6    0.000000    0.164178    0.000000       0.062500
TBtrans:    7    0.142182    0.082089    0.000000       0.062500
TBtrans:    8    0.284365    0.000000    0.000000       0.062500
TBtrans:    9   -0.142182    0.410445    0.000000       0.062500
TBtrans:   10    0.000000    0.328356    0.000000       0.062500
TBtrans:   11    0.142182    0.246267    0.000000       0.062500
TBtrans:   12    0.284365    0.164178    0.000000       0.062500
TBtrans:   13   -0.142182    0.574623    0.000000       0.062500
TBtrans:   14    0.000000    0.492534    0.000000       0.062500
TBtrans:   15    0.142182    0.410445    0.000000       0.062500
TBtrans:   16    0.284365    0.328356    0.000000       0.062500
TBtrans:   17   -0.142182    0.738801    0.000000       0.031250
TBtrans:   18    0.000000    0.656712    0.000000       0.031250
TBtrans:   19    0.142182    0.574623    0.000000       0.031250
TBtrans:   20    0.284365    0.492534    0.000000       0.031250

TBTrans: k-point coordinates (b**-1) and weights:
TBtrans:    1   -0.250000   -0.000000    0.000000       0.031250
TBtrans:    2    0.000000    0.000000    0.000000       0.031250
TBtrans:    3    0.250000    0.000000    0.000000       0.031250
TBtrans:    4    0.500000    0.000000    0.000000       0.031250
TBtrans:    5   -0.250000    0.125000    0.000000       0.062500
TBtrans:    6    0.000000    0.125000    0.000000       0.062500
TBtrans:    7    0.250000    0.125000    0.000000       0.062500
TBtrans:    8    0.500000    0.125000    0.000000       0.062500
TBtrans:    9   -0.250000    0.250000    0.000000       0.062500
TBtrans:   10    0.000000    0.250000    0.000000       0.062500
TBtrans:   11    0.250000    0.250000    0.000000       0.062500
TBtrans:   12    0.500000    0.250000    0.000000       0.062500
TBtrans:   13   -0.250000    0.375000    0.000000       0.062500
TBtrans:   14    0.000000    0.375000    0.000000       0.062500
TBtrans:   15    0.250000    0.375000    0.000000       0.062500
TBtrans:   16    0.500000    0.375000    0.000000       0.062500
TBtrans:   17   -0.250000    0.500000    0.000000       0.031250
TBtrans:   18    0.000000    0.500000    0.000000       0.031250
TBtrans:   19    0.250000    0.500000    0.000000       0.031250
TBtrans:   20    0.500000    0.500000    0.000000       0.031250
 

Creating Green's function file for: left 
 Left unit cell (Ang):
  2.9231  0.0000  0.0000
  1.4616  2.5315  0.0000
  0.0000  0.0000  7.1601
 Structure of the Left electrode  | System electrode:
     X (Ang)   Y (Ang)   Z (Ang)  |   X (Ang)   Y (Ang)   Z (Ang)
     0.00000   0.00000   0.00000  |   0.00000   0.00000   0.00000
     2.92311   0.00000   0.00000  |   2.92311   0.00000   0.00000
     1.46156   0.84383   2.38671  |   1.46156   0.84383   2.38671
     4.38467   0.84383   2.38671  |   4.38467   0.84383   2.38671
     1.46156  -0.84383   4.77342  |   1.46156  -0.84383   4.77342
     4.38467  -0.84383   4.77342  |   4.38467  -0.84383   4.77342
 WARNING: Connections across 2 unit cells or more in the transport direction.
 WARNING: This is inadvisable.
 WARNING: Please increase the electrode size in the transport direction.
 WARNING: Will proceed without further notice.
 Electrodes with transport k-points  (Bohr**-1) and weights:
   1    -0.14218E+00   0.82089E-01   0.31250E-01
   2     0.00000E+00   0.00000E+00   0.31250E-01
   3     0.14218E+00  -0.82089E-01   0.31250E-01
   4     0.28436E+00  -0.16418E+00   0.31250E-01
   5    -0.14218E+00   0.24627E+00   0.62500E-01
   6     0.00000E+00   0.16418E+00   0.62500E-01
   7     0.14218E+00   0.82089E-01   0.62500E-01
   8     0.28436E+00   0.43598E-16   0.62500E-01
   9    -0.14218E+00   0.41045E+00   0.62500E-01
  10     0.00000E+00   0.32836E+00   0.62500E-01
  11     0.14218E+00   0.24627E+00   0.62500E-01
  12     0.28436E+00   0.16418E+00   0.62500E-01
  13    -0.14218E+00   0.57462E+00   0.62500E-01
  14     0.00000E+00   0.49253E+00   0.62500E-01
  15     0.14218E+00   0.41045E+00   0.62500E-01
  16     0.28436E+00   0.32836E+00   0.62500E-01
  17    -0.14218E+00   0.73880E+00   0.31250E-01
  18     0.00000E+00   0.65671E+00   0.31250E-01
  19     0.14218E+00   0.57462E+00   0.31250E-01
  20     0.28436E+00   0.49253E+00   0.31250E-01
 Valence Band Bottom:    -9.4383 eV
 Atoms available    / used atoms   :      3 /      3
 Orbitals available / used orbitals:     27 /     27
 q-points for expanding electrode (Bohr**-1):
   1     0.00000E+00   0.00000E+00   0.50000E+00
   2     0.56873E+00  -0.32836E+00   0.50000E+00
 Fermi level shift in electrode :        0.50000  eV
Done creating 'au_111_capacitor.TBTGFL'.

Creating Green's function file for: right
 Right unit cell (Ang):
  2.9231  0.0000  0.0000
  1.4616  2.5315  0.0000
  0.0000  0.0000  7.1601
 Structure of the Right electrode | System electrode:
     X (Ang)   Y (Ang)   Z (Ang)  |   X (Ang)   Y (Ang)   Z (Ang)
     0.00000   0.00000   0.00000  |   0.00000   0.00000   0.00000
     2.92311   0.00000   0.00000  |   2.92311   0.00000   0.00000
     1.46156   0.84383   2.38671  |   1.46156   0.84383   2.38671
     4.38467   0.84383   2.38671  |   4.38467   0.84383   2.38671
     1.46156  -0.84383   4.77342  |   1.46156  -0.84383   4.77342
     4.38467  -0.84383   4.77342  |   4.38467  -0.84383   4.77342
 WARNING: Connections across 2 unit cells or more in the transport direction.
 WARNING: This is inadvisable.
 WARNING: Please increase the electrode size in the transport direction.
 WARNING: Will proceed without further notice.
 Electrodes with transport k-points  (Bohr**-1) and weights:
   1    -0.14218E+00   0.82089E-01   0.31250E-01
   2     0.00000E+00   0.00000E+00   0.31250E-01
   3     0.14218E+00  -0.82089E-01   0.31250E-01
   4     0.28436E+00  -0.16418E+00   0.31250E-01
   5    -0.14218E+00   0.24627E+00   0.62500E-01
   6     0.00000E+00   0.16418E+00   0.62500E-01
   7     0.14218E+00   0.82089E-01   0.62500E-01
   8     0.28436E+00   0.43598E-16   0.62500E-01
   9    -0.14218E+00   0.41045E+00   0.62500E-01
  10     0.00000E+00   0.32836E+00   0.62500E-01
  11     0.14218E+00   0.24627E+00   0.62500E-01
  12     0.28436E+00   0.16418E+00   0.62500E-01
  13    -0.14218E+00   0.57462E+00   0.62500E-01
  14     0.00000E+00   0.49253E+00   0.62500E-01
  15     0.14218E+00   0.41045E+00   0.62500E-01
  16     0.28436E+00   0.32836E+00   0.62500E-01
  17    -0.14218E+00   0.73880E+00   0.31250E-01
  18     0.00000E+00   0.65671E+00   0.31250E-01
  19     0.14218E+00   0.57462E+00   0.31250E-01
  20     0.28436E+00   0.49253E+00   0.31250E-01
 Valence Band Bottom:    -9.4383 eV
 Atoms available    / used atoms   :      3 /      3
 Orbitals available / used orbitals:     27 /     27
 q-points for expanding electrode (Bohr**-1):
   1     0.00000E+00   0.00000E+00   0.50000E+00
   2     0.56873E+00  -0.32836E+00   0.50000E+00
 Fermi level shift in electrode :       -0.50000  eV
Done creating 'au_111_capacitor.TBTGFR'.

Left : GF atoms    / Expanded atoms    :      3 /      6
Left : GF orbitals / Expanded orbitals :     27 /     54
Right: GF atoms    / Expanded atoms    :      3 /      6
Right: GF orbitals / Expanded orbitals :     27 /     54

 ==============================================================
  Projection Region: atoms : [   7;  14]
  Projection Region: states: [   55;  126] Tot:   72
 Reading GF file, with title:
   au_111_capacitor.TBTGFL
 Title: 'Generated GF file'

 Reading GF file, with title:
   au_111_capacitor.TBTGFR
 Title: 'Generated GF file'

# k-point:     1
# k  = -0.142182,   0.082089,   0.000000, w=   0.031250
# kb = -0.250000,  -0.000000,   0.000000, w=   0.031250
  -0.49500   0.40845967E-41   0.19298707E+01   0.19298707E+01
  -0.48500   0.39977347E-41   0.19271424E+01   0.19271424E+01
  -0.47500   0.39094600E-41   0.19244678E+01   0.19244678E+01
  -0.46500   0.38200028E-41   0.19218459E+01   0.19218459E+01
  -0.45500   0.37296017E-41   0.19192758E+01   0.19192758E+01
  -0.44500   0.36385037E-41   0.19167567E+01   0.19167567E+01
  -0.43500   0.35469637E-41   0.19142878E+01   0.19142878E+01
  -0.42500   0.34552442E-41   0.19118683E+01   0.19118683E+01
  -0.41500   0.33636149E-41   0.19094976E+01   0.19094976E+01
  -0.40500   0.32723525E-41   0.19071750E+01   0.19071750E+01
  -0.39500   0.31817399E-41   0.19048998E+01   0.19048998E+01
  -0.38500   0.30920664E-41   0.19026715E+01   0.19026715E+01
  -0.37500   0.30036268E-41   0.19004896E+01   0.19004896E+01
  -0.36500   0.29167211E-41   0.18983536E+01   0.18983536E+01
  -0.35500   0.28316543E-41   0.18962630E+01   0.18962630E+01
  -0.34500   0.27487355E-41   0.18942174E+01   0.18942174E+01
  -0.33500   0.26682779E-41   0.18922163E+01   0.18922163E+01
  -0.32500   0.25905980E-41   0.18902596E+01   0.18902596E+01
  -0.31500   0.25160152E-41   0.18883467E+01   0.18883467E+01
  -0.30500   0.24448514E-41   0.18864775E+01   0.18864775E+01
  -0.29500   0.23774303E-41   0.18846516E+01   0.18846516E+01
  -0.28500   0.23140772E-41   0.18828689E+01   0.18828689E+01
  -0.27500   0.22551179E-41   0.18811291E+01   0.18811291E+01
  -0.26500   0.22008789E-41   0.18794321E+01   0.18794321E+01
  -0.25500   0.21516864E-41   0.18777777E+01   0.18777777E+01
  -0.24500   0.21078657E-41   0.18761658E+01   0.18761658E+01
  -0.23500   0.20697410E-41   0.18745963E+01   0.18745963E+01
  -0.22500   0.20376347E-41   0.18730692E+01   0.18730692E+01
  -0.21500   0.20118667E-41   0.18715844E+01   0.18715844E+01
  -0.20500   0.19927539E-41   0.18701418E+01   0.18701418E+01
  -0.19500   0.19806099E-41   0.18687415E+01   0.18687415E+01
  -0.18500   0.19757441E-41   0.18673835E+01   0.18673835E+01
  -0.17500   0.19784613E-41   0.18660679E+01   0.18660679E+01
  -0.16500   0.19890611E-41   0.18647948E+01   0.18647948E+01
  -0.15500   0.20078377E-41   0.18635641E+01   0.18635641E+01
  -0.14500   0.20350786E-41   0.18623761E+01   0.18623761E+01
  -0.13500   0.20710648E-41   0.18612309E+01   0.18612309E+01
  -0.12500   0.21160699E-41   0.18601287E+01   0.18601287E+01
  -0.11500   0.21703595E-41   0.18590695E+01   0.18590695E+01
  -0.10500   0.22341909E-41   0.18580537E+01   0.18580537E+01
  -0.09500   0.23078124E-41   0.18570814E+01   0.18570814E+01
  -0.08500   0.23914630E-41   0.18561529E+01   0.18561529E+01
  -0.07500   0.24853718E-41   0.18552685E+01   0.18552685E+01
  -0.06500   0.25897571E-41   0.18544283E+01   0.18544283E+01
  -0.05500   0.27048268E-41   0.18536328E+01   0.18536328E+01
  -0.04500   0.28307770E-41   0.18528821E+01   0.18528821E+01
  -0.03500   0.29677921E-41   0.18521767E+01   0.18521767E+01
  -0.02500   0.31160444E-41   0.18515170E+01   0.18515170E+01
  -0.01500   0.32756930E-41   0.18509032E+01   0.18509032E+01
  -0.00500   0.34468844E-41   0.18503357E+01   0.18503357E+01
   0.00500   0.36297513E-41   0.18498150E+01   0.18498150E+01
   0.01500   0.38244123E-41   0.18493415E+01   0.18493415E+01
   0.02500   0.40309719E-41   0.18489156E+01   0.18489156E+01
   0.03500   0.42495199E-41   0.18485378E+01   0.18485378E+01
   0.04500   0.44801310E-41   0.18482085E+01   0.18482085E+01
   0.05500   0.47228648E-41   0.18479282E+01   0.18479282E+01
   0.06500   0.49777649E-41   0.18476975E+01   0.18476975E+01
   0.07500   0.52448593E-41   0.18475168E+01   0.18475168E+01
   0.08500   0.55241596E-41   0.18473866E+01   0.18473866E+01
   0.09500   0.58156612E-41   0.18473075E+01   0.18473075E+01
   0.10500   0.61193426E-41   0.18472801E+01   0.18472801E+01
   0.11500   0.64351655E-41   0.18473049E+01   0.18473049E+01
   0.12500   0.67630748E-41   0.18473824E+01   0.18473824E+01
   0.13500   0.71029978E-41   0.18475133E+01   0.18475133E+01
   0.14500   0.74548448E-41   0.18476981E+01   0.18476981E+01
   0.15500   0.78185084E-41   0.18479374E+01   0.18479374E+01
   0.16500   0.81938639E-41   0.18482319E+01   0.18482319E+01
   0.17500   0.85807687E-41   0.18485820E+01   0.18485820E+01
   0.18500   0.89790626E-41   0.18489883E+01   0.18489883E+01
   0.19500   0.93885679E-41   0.18494515E+01   0.18494515E+01
   0.20500   0.98090889E-41   0.18499720E+01   0.18499720E+01
   0.21500   0.10240412E-40   0.18505504E+01   0.18505504E+01
   0.22500   0.10682307E-40   0.18511871E+01   0.18511871E+01
   0.23500   0.11134525E-40   0.18518828E+01   0.18518828E+01
   0.24500   0.11596801E-40   0.18526376E+01   0.18526376E+01
   0.25500   0.12068850E-40   0.18534521E+01   0.18534521E+01
   0.26500   0.12550373E-40   0.18543265E+01   0.18543265E+01
   0.27500   0.13041053E-40   0.18552610E+01   0.18552610E+01
   0.28500   0.13540565E-40   0.18562561E+01   0.18562561E+01
   0.29500   0.14048811E-40   0.18573202E+01   0.18573202E+01
   0.30500   0.14564496E-40   0.18584221E+01   0.18584221E+01
   0.31500   0.15088299E-40   0.18595969E+01   0.18595969E+01
   0.32500   0.15619396E-40   0.18608300E+01   0.18608300E+01
   0.33500   0.16157384E-40   0.18621210E+01   0.18621210E+01
   0.34500   0.16701835E-40   0.18634687E+01   0.18634687E+01
   0.35500   0.17252300E-40   0.18648716E+01   0.18648716E+01
   0.36500   0.17808317E-40   0.18663276E+01   0.18663276E+01
   0.37500   0.18369405E-40   0.18678341E+01   0.18678341E+01
   0.38500   0.18935073E-40   0.18693879E+01   0.18693879E+01
   0.39500   0.19504811E-40   0.18709849E+01   0.18709849E+01
   0.40500   0.20078096E-40   0.18726200E+01   0.18726200E+01
   0.41500   0.20654391E-40   0.18742870E+01   0.18742870E+01
   0.42500   0.21233143E-40   0.18759783E+01   0.18759783E+01
   0.43500   0.21813784E-40   0.18776846E+01   0.18776846E+01
   0.44500   0.22395732E-40   0.18793944E+01   0.18793944E+01
   0.45500   0.22978389E-40   0.18810936E+01   0.18810936E+01
   0.46500   0.23561140E-40   0.18827651E+01   0.18827651E+01
   0.47500   0.24143353E-40   0.18843877E+01   0.18843877E+01
   0.48500   0.24724375E-40   0.18859353E+01   0.18859353E+01
   0.49500   0.25303535E-40   0.18873758E+01   0.18873758E+01
 
# k-point:     2
# k  =  0.000000,   0.000000,   0.000000, w=   0.031250
# kb =  0.000000,   0.000000,   0.000000, w=   0.031250
  -0.49500   0.29072824E-44   0.10422073E+01   0.10422073E+01
  -0.48500   0.12773521E-43   0.10645525E+01   0.10645525E+01
  -0.47500   0.15760046E-41   0.39376472E+01   0.39376472E+01
  -0.46500   0.97447353E-44   0.10646979E+01   0.10646979E+01
  -0.45500   0.27876951E-44   0.10556525E+01   0.10556525E+01
  -0.44500   0.13641834E-44   0.10564859E+01   0.10564859E+01
  -0.43500   0.84268088E-45   0.10588240E+01   0.10588240E+01
  -0.42500   0.59396328E-45   0.10615417E+01   0.10615417E+01
  -0.41500   0.45580092E-45   0.10643522E+01   0.10643522E+01
  -0.40500   0.37102959E-45   0.10671555E+01   0.10671555E+01
  -0.39500   0.31526899E-45   0.10699096E+01   0.10699096E+01
  -0.38500   0.27667324E-45   0.10725940E+01   0.10725940E+01
  -0.37500   0.24891158E-45   0.10751975E+01   0.10751975E+01
  -0.36500   0.22834472E-45   0.10777134E+01   0.10777134E+01
  -0.35500   0.21275611E-45   0.10801371E+01   0.10801371E+01
  -0.34500   0.20073058E-45   0.10824651E+01   0.10824651E+01
  -0.33500   0.19132836E-45   0.10846944E+01   0.10846944E+01
  -0.32500   0.18390411E-45   0.10868219E+01   0.10868219E+01
  -0.31500   0.17800164E-45   0.10888447E+01   0.10888447E+01
  -0.30500   0.17329004E-45   0.10907594E+01   0.10907594E+01
  -0.29500   0.16952373E-45   0.10925624E+01   0.10925624E+01
  -0.28500   0.16651657E-45   0.10942496E+01   0.10942496E+01
  -0.27500   0.16412478E-45   0.10958163E+01   0.10958163E+01
  -0.26500   0.16223525E-45   0.10972571E+01   0.10972571E+01
  -0.25500   0.16075760E-45   0.10985660E+01   0.10985660E+01
  -0.24500   0.15961852E-45   0.10997359E+01   0.10997359E+01
  -0.23500   0.15875778E-45   0.11007588E+01   0.11007588E+01
  -0.22500   0.15812538E-45   0.11016254E+01   0.11016254E+01
  -0.21500   0.15767956E-45   0.11023251E+01   0.11023251E+01
  -0.20500   0.15738539E-45   0.11028454E+01   0.11028454E+01
  -0.19500   0.15721382E-45   0.11031720E+01   0.11031720E+01
  -0.18500   0.15714119E-45   0.11032883E+01   0.11032883E+01
  -0.17500   0.15714909E-45   0.11031745E+01   0.11031745E+01
  -0.16500   0.15722453E-45   0.11028076E+01   0.11028076E+01
  -0.15500   0.15736056E-45   0.11021603E+01   0.11021603E+01
  -0.14500   0.15755746E-45   0.11011997E+01   0.11011997E+01
  -0.13500   0.15782450E-45   0.10998863E+01   0.10998863E+01
  -0.12500   0.15818282E-45   0.10981717E+01   0.10981717E+01
  -0.11500   0.15866984E-45   0.10959959E+01   0.10959959E+01
  -0.10500   0.15934619E-45   0.10932833E+01   0.10932833E+01
  -0.09500   0.16030699E-45   0.10899364E+01   0.10899364E+01
  -0.08500   0.16170100E-45   0.10858266E+01   0.10858266E+01
  -0.07500   0.16376483E-45   0.10807776E+01   0.10807776E+01
  -0.06500   0.16688861E-45   0.10745373E+01   0.10745373E+01
  -0.05500   0.17175429E-45   0.10667221E+01   0.10667221E+01
  -0.04500   0.17966492E-45   0.10566920E+01   0.10566920E+01
  -0.03500   0.19348302E-45   0.10432122E+01   0.10432122E+01
  -0.02500   0.22119853E-45   0.10231154E+01   0.10231154E+01
  -0.01500   0.30004041E-45   0.96635006E+00   0.96635006E+00
  -0.00500   0.15914009E-42   0.10273009E+01   0.10273009E+01
   0.00500   0.40823561E-42   0.11064585E+01   0.11064585E+01
   0.01500   0.59978539E-42   0.11562558E+01   0.11562558E+01
   0.02500   0.77902529E-42   0.11964525E+01   0.11964525E+01
   0.03500   0.95237862E-42   0.12313721E+01   0.12313721E+01
   0.04500   0.11203878E-41   0.12628558E+01   0.12628558E+01
   0.05500   0.12816139E-41   0.12918999E+01   0.12918999E+01
   0.06500   0.14337164E-41   0.13191205E+01   0.13191205E+01
   0.07500   0.15738867E-41   0.13449342E+01   0.13449342E+01
   0.08500   0.16990759E-41   0.13696411E+01   0.13696411E+01
   0.09500   0.18061502E-41   0.13934688E+01   0.13934688E+01
   0.10500   0.18920175E-41   0.14165968E+01   0.14165968E+01
   0.11500   0.19537472E-41   0.14391716E+01   0.14391716E+01
   0.12500   0.19886900E-41   0.14613165E+01   0.14613165E+01
   0.13500   0.19946041E-41   0.14831382E+01   0.14831382E+01
   0.14500   0.19697889E-41   0.15047310E+01   0.15047310E+01
   0.15500   0.19132270E-41   0.15261801E+01   0.15261801E+01
   0.16500   0.18247350E-41   0.15475642E+01   0.15475642E+01
   0.17500   0.17051209E-41   0.15689573E+01   0.15689573E+01
   0.18500   0.15563475E-41   0.15904299E+01   0.15904299E+01
   0.19500   0.13816990E-41   0.16120502E+01   0.16120502E+01
   0.20500   0.11859458E-41   0.16338854E+01   0.16338854E+01
   0.21500   0.97550440E-42   0.16560017E+01   0.16560017E+01
   0.22500   0.75858560E-42   0.16784658E+01   0.16784658E+01
   0.23500   0.54532324E-42   0.17013448E+01   0.17013448E+01
   0.24500   0.34787524E-42   0.17247068E+01   0.17247068E+01
   0.25500   0.18048555E-42   0.17486208E+01   0.17486208E+01
   0.26500   0.59494738E-43   0.17731542E+01   0.17731542E+01
   0.27500   0.32846520E-44   0.17982900E+01   0.17982900E+01
   0.28500   0.32141025E-43   0.18244781E+01   0.18244781E+01
   0.29500   0.16801560E-42   0.18513358E+01   0.18513358E+01
   0.30500   0.43416930E-42   0.18791469E+01   0.18791469E+01
   0.31500   0.85467566E-42   0.19079854E+01   0.19079854E+01
   0.32500   0.14537652E-41   0.19379376E+01   0.19379376E+01
   0.33500   0.22549928E-41   0.19690940E+01   0.19690940E+01
   0.34500   0.32802128E-41   0.20015478E+01   0.20015478E+01
   0.35500   0.45483539E-41   0.20353942E+01   0.20353942E+01
   0.36500   0.60739936E-41   0.20707301E+01   0.20707301E+01
   0.37500   0.78657467E-41   0.21076527E+01   0.21076527E+01
   0.38500   0.99244984E-41   0.21462590E+01   0.21462590E+01
   0.39500   0.12241537E-40   0.21866439E+01   0.21866439E+01
   0.40500   0.14796669E-40   0.22288989E+01   0.22288989E+01
   0.41500   0.17556438E-40   0.22731107E+01   0.22731107E+01
   0.42500   0.20472594E-40   0.23193593E+01   0.23193593E+01
   0.43500   0.23481028E-40   0.23677183E+01   0.23677183E+01
   0.44500   0.26501390E-40   0.24182591E+01   0.24182591E+01
   0.45500   0.29437675E-40   0.24710675E+01   0.24710675E+01
   0.46500   0.32180049E-40   0.25263102E+01   0.25263102E+01
   0.47500   0.34608202E-40   0.25845265E+01   0.25845265E+01
   0.48500   0.36596422E-40   0.26486168E+01   0.26486168E+01
   0.49500   0.38020528E-40   0.27682111E+01   0.27682111E+01
 
# k-point:     3
# k  =  0.142182,  -0.082089,   0.000000, w=   0.031250
# kb =  0.250000,   0.000000,   0.000000, w=   0.031250
  -0.49500   0.40845967E-41   0.19298707E+01   0.19298707E+01
  -0.48500   0.39977347E-41   0.19271424E+01   0.19271424E+01
  -0.47500   0.39094600E-41   0.19244678E+01   0.19244678E+01
  -0.46500   0.38200028E-41   0.19218459E+01   0.19218459E+01
  -0.45500   0.37296017E-41   0.19192758E+01   0.19192758E+01
  -0.44500   0.36385037E-41   0.19167567E+01   0.19167567E+01
  -0.43500   0.35469637E-41   0.19142878E+01   0.19142878E+01
  -0.42500   0.34552442E-41   0.19118683E+01   0.19118683E+01
  -0.41500   0.33636149E-41   0.19094976E+01   0.19094976E+01
  -0.40500   0.32723525E-41   0.19071750E+01   0.19071750E+01
  -0.39500   0.31817399E-41   0.19048998E+01   0.19048998E+01
  -0.38500   0.30920664E-41   0.19026715E+01   0.19026715E+01
  -0.37500   0.30036268E-41   0.19004896E+01   0.19004896E+01
  -0.36500   0.29167211E-41   0.18983536E+01   0.18983536E+01
  -0.35500   0.28316543E-41   0.18962630E+01   0.18962630E+01
  -0.34500   0.27487355E-41   0.18942174E+01   0.18942174E+01
  -0.33500   0.26682779E-41   0.18922163E+01   0.18922163E+01
  -0.32500   0.25905980E-41   0.18902596E+01   0.18902596E+01
  -0.31500   0.25160152E-41   0.18883467E+01   0.18883467E+01
  -0.30500   0.24448514E-41   0.18864775E+01   0.18864775E+01
  -0.29500   0.23774303E-41   0.18846516E+01   0.18846516E+01
  -0.28500   0.23140772E-41   0.18828689E+01   0.18828689E+01
  -0.27500   0.22551179E-41   0.18811291E+01   0.18811291E+01
  -0.26500   0.22008789E-41   0.18794321E+01   0.18794321E+01
  -0.25500   0.21516864E-41   0.18777777E+01   0.18777777E+01
  -0.24500   0.21078657E-41   0.18761658E+01   0.18761658E+01
  -0.23500   0.20697410E-41   0.18745963E+01   0.18745963E+01
  -0.22500   0.20376347E-41   0.18730692E+01   0.18730692E+01
  -0.21500   0.20118667E-41   0.18715844E+01   0.18715844E+01
  -0.20500   0.19927539E-41   0.18701418E+01   0.18701418E+01
  -0.19500   0.19806099E-41   0.18687415E+01   0.18687415E+01
  -0.18500   0.19757441E-41   0.18673835E+01   0.18673835E+01
  -0.17500   0.19784613E-41   0.18660679E+01   0.18660679E+01
  -0.16500   0.19890611E-41   0.18647948E+01   0.18647948E+01
  -0.15500   0.20078377E-41   0.18635641E+01   0.18635641E+01
  -0.14500   0.20350786E-41   0.18623761E+01   0.18623761E+01
  -0.13500   0.20710648E-41   0.18612309E+01   0.18612309E+01
  -0.12500   0.21160699E-41   0.18601287E+01   0.18601287E+01
  -0.11500   0.21703595E-41   0.18590695E+01   0.18590695E+01
  -0.10500   0.22341909E-41   0.18580537E+01   0.18580537E+01
  -0.09500   0.23078124E-41   0.18570814E+01   0.18570814E+01
  -0.08500   0.23914630E-41   0.18561529E+01   0.18561529E+01
  -0.07500   0.24853718E-41   0.18552685E+01   0.18552685E+01
  -0.06500   0.25897571E-41   0.18544283E+01   0.18544283E+01
  -0.05500   0.27048268E-41   0.18536328E+01   0.18536328E+01
  -0.04500   0.28307770E-41   0.18528821E+01   0.18528821E+01
  -0.03500   0.29677921E-41   0.18521767E+01   0.18521767E+01
  -0.02500   0.31160444E-41   0.18515170E+01   0.18515170E+01
  -0.01500   0.32756930E-41   0.18509032E+01   0.18509032E+01
  -0.00500   0.34468844E-41   0.18503357E+01   0.18503357E+01
   0.00500   0.36297513E-41   0.18498150E+01   0.18498150E+01
   0.01500   0.38244123E-41   0.18493415E+01   0.18493415E+01
   0.02500   0.40309719E-41   0.18489156E+01   0.18489156E+01
   0.03500   0.42495199E-41   0.18485378E+01   0.18485378E+01
   0.04500   0.44801310E-41   0.18482085E+01   0.18482085E+01
   0.05500   0.47228648E-41   0.18479282E+01   0.18479282E+01
   0.06500   0.49777649E-41   0.18476975E+01   0.18476975E+01
   0.07500   0.52448593E-41   0.18475168E+01   0.18475168E+01
   0.08500   0.55241596E-41   0.18473866E+01   0.18473866E+01
   0.09500   0.58156612E-41   0.18473075E+01   0.18473075E+01
   0.10500   0.61193426E-41   0.18472801E+01   0.18472801E+01
   0.11500   0.64351655E-41   0.18473049E+01   0.18473049E+01
   0.12500   0.67630748E-41   0.18473824E+01   0.18473824E+01
   0.13500   0.71029978E-41   0.18475133E+01   0.18475133E+01
   0.14500   0.74548448E-41   0.18476981E+01   0.18476981E+01
   0.15500   0.78185084E-41   0.18479374E+01   0.18479374E+01
   0.16500   0.81938639E-41   0.18482319E+01   0.18482319E+01
   0.17500   0.85807687E-41   0.18485820E+01   0.18485820E+01
   0.18500   0.89790626E-41   0.18489883E+01   0.18489883E+01
   0.19500   0.93885679E-41   0.18494515E+01   0.18494515E+01
   0.20500   0.98090889E-41   0.18499720E+01   0.18499720E+01
   0.21500   0.10240412E-40   0.18505504E+01   0.18505504E+01
   0.22500   0.10682307E-40   0.18511871E+01   0.18511871E+01
   0.23500   0.11134525E-40   0.18518828E+01   0.18518828E+01
   0.24500   0.11596801E-40   0.18526376E+01   0.18526376E+01
   0.25500   0.12068850E-40   0.18534521E+01   0.18534521E+01
   0.26500   0.12550373E-40   0.18543265E+01   0.18543265E+01
   0.27500   0.13041053E-40   0.18552610E+01   0.18552610E+01
   0.28500   0.13540565E-40   0.18562561E+01   0.18562561E+01
   0.29500   0.14048811E-40   0.18573202E+01   0.18573202E+01
   0.30500   0.14564496E-40   0.18584221E+01   0.18584221E+01
   0.31500   0.15088299E-40   0.18595969E+01   0.18595969E+01
   0.32500   0.15619396E-40   0.18608300E+01   0.18608300E+01
   0.33500   0.16157384E-40   0.18621210E+01   0.18621210E+01
   0.34500   0.16701835E-40   0.18634687E+01   0.18634687E+01
   0.35500   0.17252300E-40   0.18648716E+01   0.18648716E+01
   0.36500   0.17808317E-40   0.18663276E+01   0.18663276E+01
   0.37500   0.18369405E-40   0.18678341E+01   0.18678341E+01
   0.38500   0.18935073E-40   0.18693879E+01   0.18693879E+01
   0.39500   0.19504811E-40   0.18709849E+01   0.18709849E+01
   0.40500   0.20078096E-40   0.18726200E+01   0.18726200E+01
   0.41500   0.20654391E-40   0.18742870E+01   0.18742870E+01
   0.42500   0.21233143E-40   0.18759783E+01   0.18759783E+01
   0.43500   0.21813784E-40   0.18776846E+01   0.18776846E+01
   0.44500   0.22395732E-40   0.18793944E+01   0.18793944E+01
   0.45500   0.22978389E-40   0.18810936E+01   0.18810936E+01
   0.46500   0.23561140E-40   0.18827651E+01   0.18827651E+01
   0.47500   0.24143353E-40   0.18843877E+01   0.18843877E+01
   0.48500   0.24724375E-40   0.18859353E+01   0.18859353E+01
   0.49500   0.25303535E-40   0.18873758E+01   0.18873758E+01
 
# k-point:     4
# k  =  0.284365,  -0.164178,   0.000000, w=   0.031250
# kb =  0.500000,   0.000000,   0.000000, w=   0.031250
  -0.49500   0.12150133E-40   0.22047891E+01   0.22047891E+01
  -0.48500   0.12163205E-40   0.22043492E+01   0.22043492E+01
  -0.47500   0.12164774E-40   0.22039520E+01   0.22039520E+01
  -0.46500   0.12154762E-40   0.22035965E+01   0.22035965E+01
  -0.45500   0.12133119E-40   0.22032817E+01   0.22032817E+01
  -0.44500   0.12099817E-40   0.22030064E+01   0.22030064E+01
  -0.43500   0.12054853E-40   0.22027697E+01   0.22027697E+01
  -0.42500   0.11998249E-40   0.22025704E+01   0.22025704E+01
  -0.41500   0.11930053E-40   0.22024076E+01   0.22024076E+01
  -0.40500   0.11850338E-40   0.22022801E+01   0.22022801E+01
  -0.39500   0.11759200E-40   0.22021868E+01   0.22021868E+01
  -0.38500   0.11656763E-40   0.22021268E+01   0.22021268E+01
  -0.37500   0.11543175E-40   0.22020989E+01   0.22020989E+01
  -0.36500   0.11418609E-40   0.22021020E+01   0.22021020E+01
  -0.35500   0.11283262E-40   0.22021351E+01   0.22021351E+01
  -0.34500   0.11137357E-40   0.22021971E+01   0.22021971E+01
  -0.33500   0.10981140E-40   0.22022868E+01   0.22022868E+01
  -0.32500   0.10814882E-40   0.22024033E+01   0.22024033E+01
  -0.31500   0.10638877E-40   0.22025455E+01   0.22025455E+01
  -0.30500   0.10453442E-40   0.22027121E+01   0.22027121E+01
  -0.29500   0.10258915E-40   0.22029023E+01   0.22029023E+01
  -0.28500   0.10055657E-40   0.22031148E+01   0.22031148E+01
  -0.27500   0.98440515E-41   0.22033485E+01   0.22033485E+01
  -0.26500   0.96245003E-41   0.22036025E+01   0.22036025E+01
  -0.25500   0.93974259E-41   0.22038756E+01   0.22038756E+01
  -0.24500   0.91632695E-41   0.22041667E+01   0.22041667E+01
  -0.23500   0.89224905E-41   0.22044747E+01   0.22044747E+01
  -0.22500   0.86755653E-41   0.22047986E+01   0.22047986E+01
  -0.21500   0.84229868E-41   0.22051372E+01   0.22051372E+01
  -0.20500   0.81652629E-41   0.22054895E+01   0.22054895E+01
  -0.19500   0.79029161E-41   0.22058544E+01   0.22058544E+01
  -0.18500   0.76364818E-41   0.22062308E+01   0.22062308E+01
  -0.17500   0.73665076E-41   0.22066177E+01   0.22066177E+01
  -0.16500   0.70935524E-41   0.22070139E+01   0.22070139E+01
  -0.15500   0.68181847E-41   0.22074185E+01   0.22074185E+01
  -0.14500   0.65409820E-41   0.22078304E+01   0.22078304E+01
  -0.13500   0.62625295E-41   0.22082487E+01   0.22082487E+01
  -0.12500   0.59834192E-41   0.22086724E+01   0.22086724E+01
  -0.11500   0.57042511E-41   0.22091014E+01   0.22091014E+01
  -0.10500   0.54256494E-41   0.22095397E+01   0.22095397E+01
  -0.09500   0.51478735E-41   0.22099137E+01   0.22099137E+01
  -0.08500   0.48722688E-41   0.22103793E+01   0.22103793E+01
  -0.07500   0.45988708E-41   0.22108152E+01   0.22108152E+01
  -0.06500   0.43284100E-41   0.22112474E+01   0.22112474E+01
  -0.05500   0.40614942E-41   0.22116767E+01   0.22116767E+01
  -0.04500   0.37987215E-41   0.22121022E+01   0.22121022E+01
  -0.03500   0.35406836E-41   0.22125232E+01   0.22125232E+01
  -0.02500   0.32879655E-41   0.22129388E+01   0.22129388E+01
  -0.01500   0.30411446E-41   0.22133478E+01   0.22133478E+01
  -0.00500   0.28007891E-41   0.22137494E+01   0.22137494E+01
   0.00500   0.25674574E-41   0.22141426E+01   0.22141426E+01
   0.01500   0.23416966E-41   0.22145263E+01   0.22145263E+01
   0.02500   0.21240414E-41   0.22148995E+01   0.22148995E+01
   0.03500   0.19150127E-41   0.22152614E+01   0.22152614E+01
   0.04500   0.17151171E-41   0.22156109E+01   0.22156109E+01
   0.05500   0.15248452E-41   0.22159470E+01   0.22159470E+01
   0.06500   0.13446709E-41   0.22162688E+01   0.22162688E+01
   0.07500   0.11750503E-41   0.22165754E+01   0.22165754E+01
   0.08500   0.10164206E-41   0.22168658E+01   0.22168658E+01
   0.09500   0.86919938E-42   0.22171390E+01   0.22171390E+01
   0.10500   0.73378349E-42   0.22173942E+01   0.22173942E+01
   0.11500   0.61054839E-42   0.22176304E+01   0.22176304E+01
   0.12500   0.49984723E-42   0.22178468E+01   0.22178468E+01
   0.13500   0.40201013E-42   0.22180424E+01   0.22180424E+01
   0.14500   0.31734349E-42   0.22182163E+01   0.22182163E+01
   0.15500   0.24612930E-42   0.22183677E+01   0.22183677E+01
   0.16500   0.18862456E-42   0.22184957E+01   0.22184957E+01
   0.17500   0.14506075E-42   0.22185994E+01   0.22185994E+01
   0.18500   0.11564333E-42   0.22186780E+01   0.22186780E+01
   0.19500   0.10055127E-42   0.22187307E+01   0.22187307E+01
   0.20500   0.99936723E-43   0.22187566E+01   0.22187566E+01
   0.21500   0.11392468E-42   0.22187550E+01   0.22187550E+01
   0.22500   0.14261273E-42   0.22187250E+01   0.22187250E+01
   0.23500   0.18607079E-42   0.22186658E+01   0.22186658E+01
   0.24500   0.24434107E-42   0.22185767E+01   0.22185767E+01
   0.25500   0.31743788E-42   0.22184569E+01   0.22184569E+01
   0.26500   0.40534768E-42   0.22183057E+01   0.22183057E+01
   0.27500   0.50802907E-42   0.22181222E+01   0.22181222E+01
   0.28500   0.62541290E-42   0.22179058E+01   0.22179058E+01
   0.29500   0.75740242E-42   0.22176558E+01   0.22176558E+01
   0.30500   0.90387347E-42   0.22173715E+01   0.22173715E+01
   0.31500   0.10646748E-41   0.22170521E+01   0.22170521E+01
   0.32500   0.12396282E-41   0.22166971E+01   0.22166971E+01
   0.33500   0.14285292E-41   0.22163056E+01   0.22163056E+01
   0.34500   0.16311472E-41   0.22158772E+01   0.22158772E+01
   0.35500   0.18472260E-41   0.22154111E+01   0.22154111E+01
   0.36500   0.20764847E-41   0.22149068E+01   0.22149068E+01
   0.37500   0.23186177E-41   0.22143636E+01   0.22143636E+01
   0.38500   0.25732956E-41   0.22137809E+01   0.22137809E+01
   0.39500   0.28401660E-41   0.22131582E+01   0.22131582E+01
   0.40500   0.31188540E-41   0.22124948E+01   0.22124948E+01
   0.41500   0.34089633E-41   0.22117903E+01   0.22117903E+01
   0.42500   0.37100764E-41   0.22110441E+01   0.22110441E+01
   0.43500   0.40217561E-41   0.22102557E+01   0.22102557E+01
   0.44500   0.43435461E-41   0.22094245E+01   0.22094245E+01
   0.45500   0.46749717E-41   0.22085501E+01   0.22085501E+01
   0.46500   0.50155410E-41   0.22076320E+01   0.22076320E+01
   0.47500   0.53647461E-41   0.22066697E+01   0.22066697E+01
   0.48500   0.57220636E-41   0.22056628E+01   0.22056628E+01
   0.49500   0.60869559E-41   0.22046109E+01   0.22046109E+01
 
# k-point:     5
# k  = -0.142182,   0.246267,   0.000000, w=   0.062500
# kb = -0.250000,   0.125000,   0.000000, w=   0.062500
  -0.49500   0.25477942E-41   0.22766153E+01   0.22766153E+01
  -0.48500   0.24140256E-41   0.22730611E+01   0.22730611E+01
  -0.47500   0.22823966E-41   0.22695990E+01   0.22695990E+01
  -0.46500   0.21535111E-41   0.22662270E+01   0.22662270E+01
  -0.45500   0.20279758E-41   0.22629430E+01   0.22629430E+01
  -0.44500   0.19063993E-41   0.22597452E+01   0.22597452E+01
  -0.43500   0.17893901E-41   0.22566317E+01   0.22566317E+01
  -0.42500   0.16775551E-41   0.22536005E+01   0.22536005E+01
  -0.41500   0.15714981E-41   0.22506499E+01   0.22506499E+01
  -0.40500   0.14718179E-41   0.22477781E+01   0.22477781E+01
  -0.39500   0.13791070E-41   0.22449834E+01   0.22449834E+01
  -0.38500   0.12939501E-41   0.22422642E+01   0.22422642E+01
  -0.37500   0.12169222E-41   0.22396189E+01   0.22396189E+01
  -0.36500   0.11485883E-41   0.22370469E+01   0.22370469E+01
  -0.35500   0.10895136E-41   0.22345561E+01   0.22345561E+01
  -0.34500   0.10401567E-41   0.22320920E+01   0.22320920E+01
  -0.33500   0.10011537E-41   0.22297311E+01   0.22297311E+01
  -0.32500   0.97294797E-42   0.22274305E+01   0.22274305E+01
  -0.31500   0.95603123E-42   0.22251932E+01   0.22251932E+01
  -0.30500   0.95086987E-42   0.22230183E+01   0.22230183E+01
  -0.29500   0.95790840E-42   0.22209045E+01   0.22209045E+01
  -0.28500   0.97756872E-42   0.22188504E+01   0.22188504E+01
  -0.27500   0.10102489E-41   0.22168546E+01   0.22168546E+01
  -0.26500   0.10563222E-41   0.22149158E+01   0.22149158E+01
  -0.25500   0.11161359E-41   0.22130326E+01   0.22130326E+01
  -0.24500   0.11900099E-41   0.22112036E+01   0.22112036E+01
  -0.23500   0.12782365E-41   0.22094276E+01   0.22094276E+01
  -0.22500   0.13810789E-41   0.22077033E+01   0.22077033E+01
  -0.21500   0.14987702E-41   0.22060293E+01   0.22060293E+01
  -0.20500   0.16315135E-41   0.22044043E+01   0.22044043E+01
  -0.19500   0.17794799E-41   0.22028273E+01   0.22028273E+01
  -0.18500   0.19428091E-41   0.22012968E+01   0.22012968E+01
  -0.17500   0.21216079E-41   0.21998117E+01   0.21998117E+01
  -0.16500   0.23159503E-41   0.21983708E+01   0.21983708E+01
  -0.15500   0.25258768E-41   0.21969729E+01   0.21969729E+01
  -0.14500   0.27513938E-41   0.21956169E+01   0.21956169E+01
  -0.13500   0.29924719E-41   0.21943011E+01   0.21943011E+01
  -0.12500   0.32490581E-41   0.21930260E+01   0.21930260E+01
  -0.11500   0.35210459E-41   0.21917886E+01   0.21917886E+01
  -0.10500   0.38083094E-41   0.21905886E+01   0.21905886E+01
  -0.09500   0.41106836E-41   0.21894249E+01   0.21894249E+01
  -0.08500   0.44279697E-41   0.21882964E+01   0.21882964E+01
  -0.07500   0.47599346E-41   0.21872020E+01   0.21872020E+01
  -0.06500   0.51063117E-41   0.21861406E+01   0.21861406E+01
  -0.05500   0.54668008E-41   0.21851113E+01   0.21851113E+01
  -0.04500   0.58410690E-41   0.21841130E+01   0.21841130E+01
  -0.03500   0.62287506E-41   0.21831447E+01   0.21831447E+01
  -0.02500   0.66294485E-41   0.21822055E+01   0.21822055E+01
  -0.01500   0.70427338E-41   0.21812943E+01   0.21812943E+01
  -0.00500   0.74681475E-41   0.21804101E+01   0.21804101E+01
   0.00500   0.79052007E-41   0.21795521E+01   0.21795521E+01
   0.01500   0.83533757E-41   0.21787193E+01   0.21787193E+01
   0.02500   0.88121266E-41   0.21779107E+01   0.21779107E+01
   0.03500   0.92808807E-41   0.21771254E+01   0.21771254E+01
   0.04500   0.97590394E-41   0.21763626E+01   0.21763626E+01
   0.05500   0.10245979E-40   0.21756213E+01   0.21756213E+01
   0.06500   0.10741052E-40   0.21749006E+01   0.21749006E+01
   0.07500   0.11243589E-40   0.21741997E+01   0.21741997E+01
   0.08500   0.11752899E-40   0.21735177E+01   0.21735177E+01
   0.09500   0.12268271E-40   0.21728537E+01   0.21728537E+01
   0.10500   0.12788974E-40   0.21722070E+01   0.21722070E+01
   0.11500   0.13314262E-40   0.21715767E+01   0.21715767E+01
   0.12500   0.13843373E-40   0.21709620E+01   0.21709620E+01
   0.13500   0.14375528E-40   0.21703620E+01   0.21703620E+01
   0.14500   0.14909939E-40   0.21697761E+01   0.21697761E+01
   0.15500   0.15445803E-40   0.21692033E+01   0.21692033E+01
   0.16500   0.15982309E-40   0.21686429E+01   0.21686429E+01
   0.17500   0.16518638E-40   0.21680942E+01   0.21680942E+01
   0.18500   0.17053963E-40   0.21675564E+01   0.21675564E+01
   0.19500   0.17587454E-40   0.21670288E+01   0.21670288E+01
   0.20500   0.18118275E-40   0.21665105E+01   0.21665105E+01
   0.21500   0.18645589E-40   0.21660010E+01   0.21660010E+01
   0.22500   0.19168560E-40   0.21654994E+01   0.21654994E+01
   0.23500   0.19686352E-40   0.21650051E+01   0.21650051E+01
   0.24500   0.20198133E-40   0.21645174E+01   0.21645174E+01
   0.25500   0.20703075E-40   0.21640356E+01   0.21640356E+01
   0.26500   0.21200355E-40   0.21635590E+01   0.21635590E+01
   0.27500   0.21689162E-40   0.21630869E+01   0.21630869E+01
   0.28500   0.22168689E-40   0.21626187E+01   0.21626187E+01
   0.29500   0.22638144E-40   0.21621537E+01   0.21621537E+01
   0.30500   0.23096746E-40   0.21616913E+01   0.21616913E+01
   0.31500   0.23543729E-40   0.21612309E+01   0.21612309E+01
   0.32500   0.23978341E-40   0.21607717E+01   0.21607717E+01
   0.33500   0.24399848E-40   0.21603133E+01   0.21603133E+01
   0.34500   0.24807536E-40   0.21598550E+01   0.21598550E+01
   0.35500   0.25200708E-40   0.21593961E+01   0.21593961E+01
   0.36500   0.25578691E-40   0.21589362E+01   0.21589362E+01
   0.37500   0.25940833E-40   0.21584745E+01   0.21584745E+01
   0.38500   0.26286506E-40   0.21580106E+01   0.21580106E+01
   0.39500   0.26615108E-40   0.21575439E+01   0.21575439E+01
   0.40500   0.26926062E-40   0.21570738E+01   0.21570738E+01
   0.41500   0.27218820E-40   0.21565997E+01   0.21565997E+01
   0.42500   0.27492863E-40   0.21561211E+01   0.21561211E+01
   0.43500   0.27747698E-40   0.21556375E+01   0.21556375E+01
   0.44500   0.27982868E-40   0.21551484E+01   0.21551484E+01
   0.45500   0.28197943E-40   0.21546531E+01   0.21546531E+01
   0.46500   0.28392527E-40   0.21541512E+01   0.21541512E+01
   0.47500   0.28566258E-40   0.21536422E+01   0.21536422E+01
   0.48500   0.28718807E-40   0.21531256E+01   0.21531256E+01
   0.49500   0.28849880E-40   0.21526009E+01   0.21526009E+01
 
# k-point:     6
# k  =  0.000000,   0.164178,   0.000000, w=   0.062500
# kb =  0.000000,   0.125000,   0.000000, w=   0.062500
  -0.49500   0.11818436E-41   0.33420166E+01   0.33420166E+01
  -0.48500   0.11832736E-41   0.33020456E+01   0.33020456E+01
  -0.47500   0.11833947E-41   0.32614246E+01   0.32614246E+01
  -0.46500   0.11822071E-41   0.32204362E+01   0.32204362E+01
  -0.45500   0.11797141E-41   0.31793257E+01   0.31793257E+01
  -0.44500   0.11759220E-41   0.31383025E+01   0.31383025E+01
  -0.43500   0.11708401E-41   0.30975430E+01   0.30975430E+01
  -0.42500   0.11644804E-41   0.30571938E+01   0.30571938E+01
  -0.41500   0.11568578E-41   0.30173760E+01   0.30173760E+01
  -0.40500   0.11479902E-41   0.29781925E+01   0.29781925E+01
  -0.39500   0.11378981E-41   0.29397863E+01   0.29397863E+01
  -0.38500   0.11266046E-41   0.29017392E+01   0.29017392E+01
  -0.37500   0.11141358E-41   0.28648878E+01   0.28648878E+01
  -0.36500   0.11005200E-41   0.28287855E+01   0.28287855E+01
  -0.35500   0.10857881E-41   0.27935206E+01   0.27935206E+01
  -0.34500   0.10699735E-41   0.27591118E+01   0.27591118E+01
  -0.33500   0.10531120E-41   0.27255655E+01   0.27255655E+01
  -0.32500   0.10352415E-41   0.26928811E+01   0.26928811E+01
  -0.31500   0.10164021E-41   0.26610525E+01   0.26610525E+01
  -0.30500   0.99663601E-42   0.26300702E+01   0.26300702E+01
  -0.29500   0.97598743E-42   0.25999214E+01   0.25999214E+01
  -0.28500   0.95450239E-42   0.25705910E+01   0.25705910E+01
  -0.27500   0.93222867E-42   0.25420623E+01   0.25420623E+01
  -0.26500   0.90921572E-42   0.25143171E+01   0.25143171E+01
  -0.25500   0.88551452E-42   0.24873364E+01   0.24873364E+01
  -0.24500   0.86117748E-42   0.24611004E+01   0.24611004E+01
  -0.23500   0.83625832E-42   0.24355893E+01   0.24355893E+01
  -0.22500   0.81081193E-42   0.24107828E+01   0.24107828E+01
  -0.21500   0.78489429E-42   0.23866608E+01   0.23866608E+01
  -0.20500   0.75856233E-42   0.23632032E+01   0.23632032E+01
  -0.19500   0.73187380E-42   0.23403902E+01   0.23403902E+01
  -0.18500   0.70488716E-42   0.23182024E+01   0.23182024E+01
  -0.17500   0.67766146E-42   0.22966207E+01   0.22966207E+01
  -0.16500   0.65025621E-42   0.22756266E+01   0.22756266E+01
  -0.15500   0.62273128E-42   0.22552019E+01   0.22552019E+01
  -0.14500   0.59514674E-42   0.22353290E+01   0.22353290E+01
  -0.13500   0.56756278E-42   0.22159909E+01   0.22159909E+01
  -0.12500   0.54003958E-42   0.21971709E+01   0.21971709E+01
  -0.11500   0.51263718E-42   0.21788531E+01   0.21788531E+01
  -0.10500   0.48541538E-42   0.21610221E+01   0.21610221E+01
  -0.09500   0.45843365E-42   0.21436629E+01   0.21436629E+01
  -0.08500   0.43175097E-42   0.21267613E+01   0.21267613E+01
  -0.07500   0.40542576E-42   0.21103033E+01   0.21103033E+01
  -0.06500   0.37951577E-42   0.20942756E+01   0.20942756E+01
  -0.05500   0.35407800E-42   0.20786656E+01   0.20786656E+01
  -0.04500   0.32916857E-42   0.20634607E+01   0.20634607E+01
  -0.03500   0.30484268E-42   0.20486494E+01   0.20486494E+01
  -0.02500   0.28115449E-42   0.20342201E+01   0.20342201E+01
  -0.01500   0.25815710E-42   0.20201620E+01   0.20201620E+01
  -0.00500   0.23590246E-42   0.20064646E+01   0.20064646E+01
   0.00500   0.21444135E-42   0.19931180E+01   0.19931180E+01
   0.01500   0.19382337E-42   0.19801125E+01   0.19801125E+01
   0.02500   0.17409697E-42   0.19674389E+01   0.19674389E+01
   0.03500   0.15530954E-42   0.19550884E+01   0.19550884E+01
   0.04500   0.13750753E-42   0.19430525E+01   0.19430525E+01
   0.05500   0.12073677E-42   0.19313233E+01   0.19313233E+01
   0.06500   0.10504293E-42   0.19198930E+01   0.19198930E+01
   0.07500   0.90472329E-43   0.19087542E+01   0.19087542E+01
   0.08500   0.77073412E-43   0.18979001E+01   0.18979001E+01
   0.09500   0.64899275E-43   0.18873240E+01   0.18873240E+01
   0.10500   0.54012579E-43   0.18770198E+01   0.18770198E+01
   0.11500   0.44495503E-43   0.18669819E+01   0.18669819E+01
   0.12500   0.36472137E-43   0.18572057E+01   0.18572057E+01
   0.13500   0.30166195E-43   0.18476881E+01   0.18476881E+01
   0.14500   0.26083545E-43   0.18384296E+01   0.18384296E+01
   0.15500   0.25830478E-43   0.18294453E+01   0.18294453E+01
   0.16500   0.40659082E-43   0.18208701E+01   0.18208701E+01
   0.17500   0.35642712E-40   0.22559367E+01   0.22559367E+01
   0.18500   0.58173882E-40   0.25581224E+01   0.25581224E+01
   0.19500   0.71510327E-40   0.27646963E+01   0.27646963E+01
   0.20500   0.80400021E-40   0.29308943E+01   0.29308943E+01
   0.21500   0.86296524E-40   0.30731166E+01   0.30731166E+01
   0.22500   0.89895441E-40   0.31988890E+01   0.31988890E+01
   0.23500   0.91610963E-40   0.33123765E+01   0.33123765E+01
   0.24500   0.91730935E-40   0.34161392E+01   0.34161392E+01
   0.25500   0.90482142E-40   0.35118531E+01   0.35118531E+01
   0.26500   0.88062369E-40   0.36006564E+01   0.36006564E+01
   0.27500   0.84657632E-40   0.36833340E+01   0.36833340E+01
   0.28500   0.80451717E-40   0.37604237E+01   0.37604237E+01
   0.29500   0.75631113E-40   0.38322821E+01   0.38322821E+01
   0.30500   0.70386777E-40   0.38991270E+01   0.38991270E+01
   0.31500   0.64913427E-40   0.39610665E+01   0.39610665E+01
   0.32500   0.59406758E-40   0.40181210E+01   0.40181210E+01
   0.33500   0.54058853E-40   0.40702409E+01   0.40702409E+01
   0.34500   0.49052084E-40   0.41173218E+01   0.41173218E+01
   0.35500   0.44551902E-40   0.41592208E+01   0.41592208E+01
   0.36500   0.40699096E-40   0.41957713E+01   0.41957713E+01
   0.37500   0.37602241E-40   0.42268005E+01   0.42268005E+01
   0.38500   0.35331216E-40   0.42521471E+01   0.42521471E+01
   0.39500   0.33912735E-40   0.42716791E+01   0.42716791E+01
   0.40500   0.33328691E-40   0.42853113E+01   0.42853113E+01
   0.41500   0.33517878E-40   0.42930204E+01   0.42930204E+01
   0.42500   0.34381214E-40   0.42948571E+01   0.42948571E+01
   0.43500   0.35790029E-40   0.42909520E+01   0.42909520E+01
   0.44500   0.37596549E-40   0.42815171E+01   0.42815171E+01
   0.45500   0.39645308E-40   0.42668401E+01   0.42668401E+01
   0.46500   0.41784173E-40   0.42472736E+01   0.42472736E+01
   0.47500   0.43873783E-40   0.42232208E+01   0.42232208E+01
   0.48500   0.45794615E-40   0.41951170E+01   0.41951170E+01
   0.49500   0.47451312E-40   0.41634121E+01   0.41634121E+01
 
# k-point:     7
# k  =  0.142182,   0.082089,   0.000000, w=   0.062500
# kb =  0.250000,   0.125000,   0.000000, w=   0.062500
  -0.49500   0.11816996E-41   0.33410294E+01   0.33410294E+01
  -0.48500   0.11831319E-41   0.33010278E+01   0.33010278E+01
  -0.47500   0.11832553E-41   0.32603856E+01   0.32603856E+01
  -0.46500   0.11820703E-41   0.32193844E+01   0.32193844E+01
  -0.45500   0.11795800E-41   0.31782684E+01   0.31782684E+01
  -0.44500   0.11757907E-41   0.31372463E+01   0.31372463E+01
  -0.43500   0.11707116E-41   0.30964934E+01   0.30964934E+01
  -0.42500   0.11643549E-41   0.30561557E+01   0.30561557E+01
  -0.41500   0.11567354E-41   0.30163535E+01   0.30163535E+01
  -0.40500   0.11478710E-41   0.29771892E+01   0.29771892E+01
  -0.39500   0.11377821E-41   0.29388065E+01   0.29388065E+01
  -0.38500   0.11264919E-41   0.29007774E+01   0.29007774E+01
  -0.37500   0.11140264E-41   0.28639535E+01   0.28639535E+01
  -0.36500   0.11004140E-41   0.28278785E+01   0.28278785E+01
  -0.35500   0.10856855E-41   0.27926417E+01   0.27926417E+01
  -0.34500   0.10698744E-41   0.27582616E+01   0.27582616E+01
  -0.33500   0.10530163E-41   0.27247445E+01   0.27247445E+01
  -0.32500   0.10351493E-41   0.26920893E+01   0.26920893E+01
  -0.31500   0.10163134E-41   0.26602901E+01   0.26602901E+01
  -0.30500   0.99655076E-42   0.26293370E+01   0.26293370E+01
  -0.29500   0.97590564E-42   0.25992171E+01   0.25992171E+01
  -0.28500   0.95442403E-42   0.25699153E+01   0.25699153E+01
  -0.27500   0.93215372E-42   0.25414146E+01   0.25414146E+01
  -0.26500   0.90914415E-42   0.25136969E+01   0.25136969E+01
  -0.25500   0.88544629E-42   0.24867431E+01   0.24867431E+01
  -0.24500   0.86111255E-42   0.24605334E+01   0.24605334E+01
  -0.23500   0.83619664E-42   0.24350479E+01   0.24350479E+01
  -0.22500   0.81075345E-42   0.24102662E+01   0.24102662E+01
  -0.21500   0.78483896E-42   0.23861683E+01   0.23861683E+01
  -0.20500   0.75851009E-42   0.23627340E+01   0.23627340E+01
  -0.19500   0.73182459E-42   0.23399436E+01   0.23399436E+01
  -0.18500   0.70484092E-42   0.23177777E+01   0.23177777E+01
  -0.17500   0.67761812E-42   0.22962172E+01   0.22962172E+01
  -0.16500   0.65021570E-42   0.22752434E+01   0.22752434E+01
  -0.15500   0.62269353E-42   0.22548383E+01   0.22548383E+01
  -0.14500   0.59511169E-42   0.22349843E+01   0.22349843E+01
  -0.13500   0.56753035E-42   0.22156644E+01   0.22156644E+01
  -0.12500   0.54000970E-42   0.21968619E+01   0.21968619E+01
  -0.11500   0.51260978E-42   0.21785610E+01   0.21785610E+01
  -0.10500   0.48539040E-42   0.21607461E+01   0.21607461E+01
  -0.09500   0.45841101E-42   0.21434025E+01   0.21434025E+01
  -0.08500   0.43173059E-42   0.21265157E+01   0.21265157E+01
  -0.07500   0.40540758E-42   0.21100720E+01   0.21100720E+01
  -0.06500   0.37949973E-42   0.20940581E+01   0.20940581E+01
  -0.05500   0.35406402E-42   0.20784611E+01   0.20784611E+01
  -0.04500   0.32915659E-42   0.20632689E+01   0.20632689E+01
  -0.03500   0.30483262E-42   0.20484696E+01   0.20484696E+01
  -0.02500   0.28114631E-42   0.20340518E+01   0.20340518E+01
  -0.01500   0.25815072E-42   0.20200047E+01   0.20200047E+01
  -0.00500   0.23589782E-42   0.20063179E+01   0.20063179E+01
   0.00500   0.21443839E-42   0.19929814E+01   0.19929814E+01
   0.01500   0.19382204E-42   0.19799855E+01   0.19799855E+01
   0.02500   0.17409721E-42   0.19673211E+01   0.19673211E+01
   0.03500   0.15531129E-42   0.19549795E+01   0.19549795E+01
   0.04500   0.13751072E-42   0.19429520E+01   0.19429520E+01
   0.05500   0.12074135E-42   0.19312308E+01   0.19312308E+01
   0.06500   0.10504881E-42   0.19198081E+01   0.19198081E+01
   0.07500   0.90479449E-43   0.19086767E+01   0.19086767E+01
   0.08500   0.77081672E-43   0.18978295E+01   0.18978295E+01
   0.09500   0.64908556E-43   0.18872600E+01   0.18872600E+01
   0.10500   0.54022719E-43   0.18769621E+01   0.18769621E+01
   0.11500   0.44506264E-43   0.18669303E+01   0.18669303E+01
   0.12500   0.36483137E-43   0.18571598E+01   0.18571598E+01
   0.13500   0.30176747E-43   0.18476475E+01   0.18476475E+01
   0.14500   0.26092198E-43   0.18383942E+01   0.18383942E+01
   0.15500   0.25833197E-43   0.18294147E+01   0.18294147E+01
   0.16500   0.40632873E-43   0.18208439E+01   0.18208439E+01
   0.17500   0.35580681E-40   0.22551150E+01   0.22551150E+01
   0.18500   0.58076256E-40   0.25567835E+01   0.25567835E+01
   0.19500   0.71395002E-40   0.27630375E+01   0.27630375E+01
   0.20500   0.80275769E-40   0.29290072E+01   0.29290072E+01
   0.21500   0.86169106E-40   0.30710608E+01   0.30710608E+01
   0.22500   0.89769043E-40   0.31967091E+01   0.31967091E+01
   0.23500   0.91488743E-40   0.33101089E+01   0.33101089E+01
   0.24500   0.91615279E-40   0.34138149E+01   0.34138149E+01
   0.25500   0.90374801E-40   0.35094999E+01   0.35094999E+01
   0.26500   0.87964544E-40   0.35982995E+01   0.35982995E+01
   0.27500   0.84570027E-40   0.36809968E+01   0.36809968E+01
   0.28500   0.80374589E-40   0.37581282E+01   0.37581282E+01
   0.29500   0.75564317E-40   0.38300491E+01   0.38300491E+01
   0.30500   0.70329816E-40   0.38969763E+01   0.38969763E+01
   0.31500   0.64865512E-40   0.39590168E+01   0.39590168E+01
   0.32500   0.59366875E-40   0.40161899E+01   0.40161899E+01
   0.33500   0.54025839E-40   0.40684446E+01   0.40684446E+01
   0.34500   0.49024707E-40   0.41156756E+01   0.41156756E+01
   0.35500   0.44528948E-40   0.41577378E+01   0.41577378E+01
   0.36500   0.40679449E-40   0.41944631E+01   0.41944631E+01
   0.37500   0.37584954E-40   0.42256765E+01   0.42256765E+01
   0.38500   0.35315568E-40   0.42512142E+01   0.42512142E+01
   0.39500   0.33898264E-40   0.42709415E+01   0.42709415E+01
   0.40500   0.33315200E-40   0.42847705E+01   0.42847705E+01
   0.41500   0.33505422E-40   0.42926751E+01   0.42926751E+01
   0.42500   0.34370051E-40   0.42947031E+01   0.42947031E+01
   0.43500   0.35780563E-40   0.42909824E+01   0.42909824E+01
   0.44500   0.37589261E-40   0.42817225E+01   0.42817225E+01
   0.45500   0.39640684E-40   0.42672091E+01   0.42672091E+01
   0.46500   0.41782643E-40   0.42477932E+01   0.42477932E+01
   0.47500   0.43875672E-40   0.42238767E+01   0.42238767E+01
   0.48500   0.45800112E-40   0.41958943E+01   0.41958943E+01
   0.49500   0.47460460E-40   0.41642955E+01   0.41642955E+01
 
# k-point:     8
# k  =  0.284365,   0.000000,   0.000000, w=   0.062500
# kb =  0.500000,   0.125000,   0.000000, w=   0.062500
  -0.49500   0.25486340E-41   0.22764971E+01   0.22764971E+01
  -0.48500   0.24148385E-41   0.22729429E+01   0.22729429E+01
  -0.47500   0.22831810E-41   0.22694809E+01   0.22694809E+01
  -0.46500   0.21542653E-41   0.22661090E+01   0.22661090E+01
  -0.45500   0.20286981E-41   0.22628252E+01   0.22628252E+01
  -0.44500   0.19070880E-41   0.22596276E+01   0.22596276E+01
  -0.43500   0.17900434E-41   0.22565142E+01   0.22565142E+01
  -0.42500   0.16781713E-41   0.22534832E+01   0.22534832E+01
  -0.41500   0.15720754E-41   0.22505328E+01   0.22505328E+01
  -0.40500   0.14723545E-41   0.22476613E+01   0.22476613E+01
  -0.39500   0.13796012E-41   0.22448669E+01   0.22448669E+01
  -0.38500   0.12943999E-41   0.22421479E+01   0.22421479E+01
  -0.37500   0.12173259E-41   0.22395029E+01   0.22395029E+01
  -0.36500   0.11489439E-41   0.22369311E+01   0.22369311E+01
  -0.35500   0.10898179E-41   0.22344395E+01   0.22344395E+01
  -0.34500   0.10404136E-41   0.22319785E+01   0.22319785E+01
  -0.33500   0.10013567E-41   0.22296173E+01   0.22296173E+01
  -0.32500   0.97309609E-42   0.22273171E+01   0.22273171E+01
  -0.31500   0.95612296E-42   0.22250803E+01   0.22250803E+01
  -0.30500   0.95090365E-42   0.22229059E+01   0.22229059E+01
  -0.29500   0.95788272E-42   0.22207926E+01   0.22207926E+01
  -0.28500   0.97748211E-42   0.22187390E+01   0.22187390E+01
  -0.27500   0.10101000E-41   0.22167438E+01   0.22167438E+01
  -0.26500   0.10561096E-41   0.22148056E+01   0.22148056E+01
  -0.25500   0.11158582E-41   0.22129230E+01   0.22129230E+01
  -0.24500   0.11896661E-41   0.22110947E+01   0.22110947E+01
  -0.23500   0.12778255E-41   0.22093194E+01   0.22093194E+01
  -0.22500   0.13805995E-41   0.22075957E+01   0.22075957E+01
  -0.21500   0.14982217E-41   0.22059225E+01   0.22059225E+01
  -0.20500   0.16308948E-41   0.22042983E+01   0.22042983E+01
  -0.19500   0.17787905E-41   0.22027220E+01   0.22027220E+01
  -0.18500   0.19420482E-41   0.22011923E+01   0.22011923E+01
  -0.17500   0.21207751E-41   0.21997081E+01   0.21997081E+01
  -0.16500   0.23150452E-41   0.21982680E+01   0.21982680E+01
  -0.15500   0.25248989E-41   0.21968710E+01   0.21968710E+01
  -0.14500   0.27503429E-41   0.21955157E+01   0.21955157E+01
  -0.13500   0.29913440E-41   0.21942001E+01   0.21942001E+01
  -0.12500   0.32478638E-41   0.21929271E+01   0.21929271E+01
  -0.11500   0.35197785E-41   0.21916905E+01   0.21916905E+01
  -0.10500   0.38069698E-41   0.21904915E+01   0.21904915E+01
  -0.09500   0.41092724E-41   0.21893287E+01   0.21893287E+01
  -0.08500   0.44264875E-41   0.21882012E+01   0.21882012E+01
  -0.07500   0.47583822E-41   0.21871078E+01   0.21871078E+01
  -0.06500   0.51046899E-41   0.21860475E+01   0.21860475E+01
  -0.05500   0.54651107E-41   0.21850193E+01   0.21850193E+01
  -0.04500   0.58393117E-41   0.21840221E+01   0.21840221E+01
  -0.03500   0.62269275E-41   0.21830549E+01   0.21830549E+01
  -0.02500   0.66275608E-41   0.21821168E+01   0.21821168E+01
  -0.01500   0.70407832E-41   0.21812067E+01   0.21812067E+01
  -0.00500   0.74661356E-41   0.21803238E+01   0.21803238E+01
   0.00500   0.79031292E-41   0.21794669E+01   0.21794669E+01
   0.01500   0.83512464E-41   0.21786353E+01   0.21786353E+01
   0.02500   0.88099415E-41   0.21778279E+01   0.21778279E+01
   0.03500   0.92786420E-41   0.21770438E+01   0.21770438E+01
   0.04500   0.97567492E-41   0.21762822E+01   0.21762822E+01
   0.05500   0.10243640E-40   0.21755422E+01   0.21755422E+01
   0.06500   0.10738666E-40   0.21748228E+01   0.21748228E+01
   0.07500   0.11241159E-40   0.21741231E+01   0.21741231E+01
   0.08500   0.11750427E-40   0.21734424E+01   0.21734424E+01
   0.09500   0.12265759E-40   0.21727798E+01   0.21727798E+01
   0.10500   0.12786426E-40   0.21721344E+01   0.21721344E+01
   0.11500   0.13311680E-40   0.21715055E+01   0.21715055E+01
   0.12500   0.13840760E-40   0.21708921E+01   0.21708921E+01
   0.13500   0.14372887E-40   0.21702935E+01   0.21702935E+01
   0.14500   0.14907272E-40   0.21697089E+01   0.21697089E+01
   0.15500   0.15443114E-40   0.21691375E+01   0.21691375E+01
   0.16500   0.15979601E-40   0.21685785E+01   0.21685785E+01
   0.17500   0.16515913E-40   0.21680312E+01   0.21680312E+01
   0.18500   0.17051225E-40   0.21674948E+01   0.21674948E+01
   0.19500   0.17584705E-40   0.21669685E+01   0.21669685E+01
   0.20500   0.18115518E-40   0.21664517E+01   0.21664517E+01
   0.21500   0.18642828E-40   0.21659436E+01   0.21659436E+01
   0.22500   0.19165797E-40   0.21654435E+01   0.21654435E+01
   0.23500   0.19683590E-40   0.21649506E+01   0.21649506E+01
   0.24500   0.20195375E-40   0.21644643E+01   0.21644643E+01
   0.25500   0.20700323E-40   0.21639840E+01   0.21639840E+01
   0.26500   0.21197614E-40   0.21635088E+01   0.21635088E+01
   0.27500   0.21686432E-40   0.21630382E+01   0.21630382E+01
   0.28500   0.22165975E-40   0.21625714E+01   0.21625714E+01
   0.29500   0.22635447E-40   0.21621079E+01   0.21621079E+01
   0.30500   0.23094070E-40   0.21616470E+01   0.21616470E+01
   0.31500   0.23541075E-40   0.21611880E+01   0.21611880E+01
   0.32500   0.23975712E-40   0.21607304E+01   0.21607304E+01
   0.33500   0.24397247E-40   0.21602734E+01   0.21602734E+01
   0.34500   0.24804964E-40   0.21598165E+01   0.21598165E+01
   0.35500   0.25198168E-40   0.21593592E+01   0.21593592E+01
   0.36500   0.25576184E-40   0.21589007E+01   0.21589007E+01
   0.37500   0.25938361E-40   0.21584406E+01   0.21584406E+01
   0.38500   0.26284071E-40   0.21579781E+01   0.21579781E+01
   0.39500   0.26612712E-40   0.21575129E+01   0.21575129E+01
   0.40500   0.26923707E-40   0.21570442E+01   0.21570442E+01
   0.41500   0.27216507E-40   0.21565716E+01   0.21565716E+01
   0.42500   0.27490592E-40   0.21560945E+01   0.21560945E+01
   0.43500   0.27745472E-40   0.21556124E+01   0.21556124E+01
   0.44500   0.27980687E-40   0.21551247E+01   0.21551247E+01
   0.45500   0.28195808E-40   0.21546309E+01   0.21546309E+01
   0.46500   0.28390440E-40   0.21541304E+01   0.21541304E+01
   0.47500   0.28564219E-40   0.21536229E+01   0.21536229E+01
   0.48500   0.28716816E-40   0.21531077E+01   0.21531077E+01
   0.49500   0.28847938E-40   0.21525844E+01   0.21525844E+01
 
# k-point:     9
# k  = -0.142182,   0.410445,   0.000000, w=   0.062500
# kb = -0.250000,   0.250000,   0.000000, w=   0.062500
  -0.49500   0.14146807E-41   0.22561150E+01   0.22561150E+01
  -0.48500   0.12705215E-41   0.22513267E+01   0.22513267E+01
  -0.47500   0.11340182E-41   0.22466660E+01   0.22466660E+01
  -0.46500   0.10059905E-41   0.22421305E+01   0.22421305E+01
  -0.45500   0.88725491E-42   0.22377180E+01   0.22377180E+01
  -0.44500   0.77862251E-42   0.22334263E+01   0.22334263E+01
  -0.43500   0.68089709E-42   0.22292533E+01   0.22292533E+01
  -0.42500   0.59487318E-42   0.22251971E+01   0.22251971E+01
  -0.41500   0.52133401E-42   0.22212557E+01   0.22212557E+01
  -0.40500   0.46104955E-42   0.22174274E+01   0.22174274E+01
  -0.39500   0.41477453E-42   0.22137102E+01   0.22137102E+01
  -0.38500   0.38324650E-42   0.22101025E+01   0.22101025E+01
  -0.37500   0.36718390E-42   0.22066026E+01   0.22066026E+01
  -0.36500   0.36728414E-42   0.22032088E+01   0.22032088E+01
  -0.35500   0.38422176E-42   0.21999196E+01   0.21999196E+01
  -0.34500   0.41864658E-42   0.21967335E+01   0.21967335E+01
  -0.33500   0.47118190E-42   0.21936490E+01   0.21936490E+01
  -0.32500   0.54242275E-42   0.21906645E+01   0.21906645E+01
  -0.31500   0.63293422E-42   0.21877788E+01   0.21877788E+01
  -0.30500   0.74324978E-42   0.21849904E+01   0.21849904E+01
  -0.29500   0.87386968E-42   0.21822979E+01   0.21822979E+01
  -0.28500   0.10252595E-41   0.21797002E+01   0.21797002E+01
  -0.27500   0.11978485E-41   0.21771959E+01   0.21771959E+01
  -0.26500   0.13920286E-41   0.21747837E+01   0.21747837E+01
  -0.25500   0.16081524E-41   0.21724624E+01   0.21724624E+01
  -0.24500   0.18465328E-41   0.21702308E+01   0.21702308E+01
  -0.23500   0.21074411E-41   0.21680877E+01   0.21680877E+01
  -0.22500   0.23911062E-41   0.21660321E+01   0.21660321E+01
  -0.21500   0.26977135E-41   0.21640626E+01   0.21640626E+01
  -0.20500   0.30274044E-41   0.21621783E+01   0.21621783E+01
  -0.19500   0.33802746E-41   0.21603780E+01   0.21603780E+01
  -0.18500   0.37563744E-41   0.21586605E+01   0.21586605E+01
  -0.17500   0.41557072E-41   0.21570250E+01   0.21570250E+01
  -0.16500   0.45782294E-41   0.21554701E+01   0.21554701E+01
  -0.15500   0.50238498E-41   0.21539950E+01   0.21539950E+01
  -0.14500   0.54924287E-41   0.21525985E+01   0.21525985E+01
  -0.13500   0.59837668E-41   0.21512774E+01   0.21512774E+01
  -0.12500   0.64976771E-41   0.21500392E+01   0.21500392E+01
  -0.11500   0.70338168E-41   0.21488725E+01   0.21488725E+01
  -0.10500   0.75918789E-41   0.21477808E+01   0.21477808E+01
  -0.09500   0.81714818E-41   0.21467629E+01   0.21467629E+01
  -0.08500   0.87721973E-41   0.21458178E+01   0.21458178E+01
  -0.07500   0.93935495E-41   0.21449444E+01   0.21449444E+01
  -0.06500   0.10035016E-40   0.21441418E+01   0.21441418E+01
  -0.05500   0.10696027E-40   0.21434091E+01   0.21434091E+01
  -0.04500   0.11375968E-40   0.21427453E+01   0.21427453E+01
  -0.03500   0.12074178E-40   0.21421494E+01   0.21421494E+01
  -0.02500   0.12789954E-40   0.21416206E+01   0.21416206E+01
  -0.01500   0.13522548E-40   0.21411578E+01   0.21411578E+01
  -0.00500   0.14271170E-40   0.21407602E+01   0.21407602E+01
   0.00500   0.15034990E-40   0.21404268E+01   0.21404268E+01
   0.01500   0.15813137E-40   0.21401567E+01   0.21401567E+01
   0.02500   0.16604702E-40   0.21399490E+01   0.21399490E+01
   0.03500   0.17408741E-40   0.21398028E+01   0.21398028E+01
   0.04500   0.18224270E-40   0.21397170E+01   0.21397170E+01
   0.05500   0.19050276E-40   0.21396909E+01   0.21396909E+01
   0.06500   0.19885710E-40   0.21397235E+01   0.21397235E+01
   0.07500   0.20729495E-40   0.21398139E+01   0.21398139E+01
   0.08500   0.21580525E-40   0.21399612E+01   0.21399612E+01
   0.09500   0.22437666E-40   0.21401644E+01   0.21401644E+01
   0.10500   0.23299759E-40   0.21404227E+01   0.21404227E+01
   0.11500   0.24165625E-40   0.21407351E+01   0.21407351E+01
   0.12500   0.25034061E-40   0.21411008E+01   0.21411008E+01
   0.13500   0.25903847E-40   0.21415188E+01   0.21415188E+01
   0.14500   0.26773746E-40   0.21419883E+01   0.21419883E+01
   0.15500   0.27642508E-40   0.21425082E+01   0.21425082E+01
   0.16500   0.28508870E-40   0.21430778E+01   0.21430778E+01
   0.17500   0.29371560E-40   0.21436960E+01   0.21436960E+01
   0.18500   0.30229297E-40   0.21443620E+01   0.21443620E+01
   0.19500   0.31080798E-40   0.21450749E+01   0.21450749E+01
   0.20500   0.31924775E-40   0.21458338E+01   0.21458338E+01
   0.21500   0.32759941E-40   0.21466376E+01   0.21466376E+01
   0.22500   0.33585010E-40   0.21474857E+01   0.21474857E+01
   0.23500   0.34398703E-40   0.21483769E+01   0.21483769E+01
   0.24500   0.35199746E-40   0.21493104E+01   0.21493104E+01
   0.25500   0.35986876E-40   0.21502853E+01   0.21502853E+01
   0.26500   0.36758840E-40   0.21513007E+01   0.21513007E+01
   0.27500   0.37514402E-40   0.21523556E+01   0.21523556E+01
   0.28500   0.38252341E-40   0.21534491E+01   0.21534491E+01
   0.29500   0.38971455E-40   0.21545803E+01   0.21545803E+01
[...]
   0.38500   0.70153270E-40   0.65922183E+01   0.65922183E+01
   0.39500   0.67263902E-40   0.66296267E+01   0.66296267E+01
   0.40500   0.66042013E-40   0.66551825E+01   0.66551825E+01
   0.41500   0.66365308E-40   0.66688499E+01   0.66688499E+01
   0.42500   0.68035674E-40   0.66707434E+01   0.66707434E+01
   0.43500   0.70795786E-40   0.66611424E+01   0.66611424E+01
   0.44500   0.74350086E-40   0.66404927E+01   0.66404927E+01
   0.45500   0.78387636E-40   0.66093977E+01   0.66093977E+01
   0.46500   0.82604182E-40   0.65685976E+01   0.65685976E+01
   0.47500   0.86721063E-40   0.65189414E+01   0.65189414E+01
   0.48500   0.90499358E-40   0.64613533E+01   0.64613533E+01
   0.49500   0.93748554E-40   0.63967983E+01   0.63967983E+01
 
# k-point:    18
# k  =  0.000000,   0.656712,   0.000000, w=   0.031250
# kb =  0.000000,   0.500000,   0.000000, w=   0.031250
  -0.49500   0.20127081E-45   0.15118941E+01   0.15118941E+01
  -0.48500   0.20188974E-45   0.15221816E+01   0.15221816E+01
  -0.47500   0.20266025E-45   0.15323064E+01   0.15323064E+01
  -0.46500   0.20358508E-45   0.15422751E+01   0.15422751E+01
  -0.45500   0.20466621E-45   0.15520944E+01   0.15520944E+01
  -0.44500   0.20590487E-45   0.15617706E+01   0.15617706E+01
  -0.43500   0.20730148E-45   0.15713101E+01   0.15713101E+01
  -0.42500   0.20885565E-45   0.15807189E+01   0.15807189E+01
  -0.41500   0.21056612E-45   0.15900030E+01   0.15900030E+01
  -0.40500   0.21243078E-45   0.15991683E+01   0.15991683E+01
  -0.39500   0.21444663E-45   0.16082205E+01   0.16082205E+01
  -0.38500   0.21660974E-45   0.16171654E+01   0.16171654E+01
  -0.37500   0.21891526E-45   0.16260086E+01   0.16260086E+01
  -0.36500   0.22135739E-45   0.16347557E+01   0.16347557E+01
  -0.35500   0.22392938E-45   0.16434124E+01   0.16434124E+01
  -0.34500   0.22662354E-45   0.16519841E+01   0.16519841E+01
  -0.33500   0.22943120E-45   0.16604764E+01   0.16604764E+01
  -0.32500   0.23234278E-45   0.16688950E+01   0.16688950E+01
  -0.31500   0.23534777E-45   0.16772453E+01   0.16772453E+01
  -0.30500   0.23843478E-45   0.16855332E+01   0.16855332E+01
  -0.29500   0.24159160E-45   0.16937642E+01   0.16937642E+01
  -0.28500   0.24480526E-45   0.17019442E+01   0.17019442E+01
  -0.27500   0.24806212E-45   0.17100791E+01   0.17100791E+01
  -0.26500   0.25134799E-45   0.17181748E+01   0.17181748E+01
  -0.25500   0.25464829E-45   0.17262375E+01   0.17262375E+01
  -0.24500   0.25794828E-45   0.17342735E+01   0.17342735E+01
  -0.23500   0.26123324E-45   0.17422891E+01   0.17422891E+01
  -0.22500   0.26448888E-45   0.17502910E+01   0.17502910E+01
  -0.21500   0.26770172E-45   0.17582861E+01   0.17582861E+01
  -0.20500   0.27085961E-45   0.17662812E+01   0.17662812E+01
  -0.19500   0.27395246E-45   0.17742838E+01   0.17742838E+01
  -0.18500   0.27697316E-45   0.17823015E+01   0.17823015E+01
  -0.17500   0.27991873E-45   0.17903420E+01   0.17903420E+01
  -0.16500   0.28279197E-45   0.17984135E+01   0.17984135E+01
  -0.15500   0.28560363E-45   0.18065247E+01   0.18065247E+01
  -0.14500   0.28837542E-45   0.18146844E+01   0.18146844E+01
  -0.13500   0.29114430E-45   0.18229019E+01   0.18229019E+01
  -0.12500   0.29396868E-45   0.18311872E+01   0.18311872E+01
  -0.11500   0.29693763E-45   0.18395505E+01   0.18395505E+01
  -0.10500   0.30018517E-45   0.18480027E+01   0.18480027E+01
  -0.09500   0.30391316E-45   0.18565552E+01   0.18565552E+01
  -0.08500   0.30842987E-45   0.18652201E+01   0.18652201E+01
  -0.07500   0.31421870E-45   0.18740102E+01   0.18740102E+01
  -0.06500   0.32206990E-45   0.18829391E+01   0.18829391E+01
  -0.05500   0.33335734E-45   0.18920215E+01   0.18920215E+01
  -0.04500   0.35069727E-45   0.19012732E+01   0.19012732E+01
  -0.03500   0.37982472E-45   0.19107121E+01   0.19107121E+01
  -0.02500   0.43673277E-45   0.19203605E+01   0.19203605E+01
  -0.01500   0.59698528E-45   0.19302631E+01   0.19302631E+01
  -0.00500   0.31465415E-42   0.20525288E+01   0.20525288E+01
   0.00500   0.80765438E-42   0.22107561E+01   0.22107561E+01
   0.01500   0.11872501E-41   0.23102812E+01   0.23102812E+01
   0.02500   0.15427736E-41   0.23906109E+01   0.23906109E+01
   0.03500   0.18868673E-41   0.24603896E+01   0.24603896E+01
   0.04500   0.22205548E-41   0.25232991E+01   0.25232991E+01
   0.05500   0.25409421E-41   0.25813310E+01   0.25813310E+01
   0.06500   0.28433524E-41   0.26357172E+01   0.26357172E+01
   0.07500   0.31221801E-41   0.26872903E+01   0.26872903E+01
   0.08500   0.33713439E-41   0.27366506E+01   0.27366506E+01
   0.09500   0.35845931E-41   0.27842529E+01   0.27842529E+01
   0.10500   0.37557598E-41   0.28304559E+01   0.28304559E+01
   0.11500   0.38789962E-41   0.28755527E+01   0.28755527E+01
   0.12500   0.39490139E-41   0.29197899E+01   0.29197899E+01
   0.13500   0.39613346E-41   0.29633804E+01   0.29633804E+01
   0.14500   0.39125561E-41   0.30065128E+01   0.30065128E+01
   0.15500   0.38006359E-41   0.30493575E+01   0.30493575E+01
   0.16500   0.36251909E-41   0.30920719E+01   0.30920719E+01
   0.17500   0.33878120E-41   0.31348037E+01   0.31348037E+01
   0.18500   0.30923900E-41   0.31776938E+01   0.31776938E+01
   0.19500   0.27454471E-41   0.32208787E+01   0.32208787E+01
   0.20500   0.23564668E-41   0.32644925E+01   0.32644925E+01
   0.21500   0.19382129E-41   0.33086678E+01   0.33086678E+01
   0.22500   0.15070257E-41   0.33535377E+01   0.33535377E+01
   0.23500   0.10830802E-41   0.33992364E+01   0.33992364E+01
   0.24500   0.69058834E-42   0.34459001E+01   0.34459001E+01
   0.25500   0.35792501E-42   0.34936668E+01   0.34936668E+01
   0.26500   0.11765078E-42   0.35426713E+01   0.35426713E+01
   0.27500   0.64043168E-44   0.35928827E+01   0.35928827E+01
   0.28500   0.64631461E-43   0.36451884E+01   0.36451884E+01
   0.29500   0.33611437E-42   0.36988383E+01   0.36988383E+01
   0.30500   0.86726393E-42   0.37543933E+01   0.37543933E+01
   0.31500   0.17061338E-41   0.38120016E+01   0.38120016E+01
   0.32500   0.29011179E-41   0.38718361E+01   0.38718361E+01
   0.33500   0.44992941E-41   0.39340775E+01   0.39340775E+01
   0.34500   0.65443853E-41   0.39989120E+01   0.39989120E+01
   0.35500   0.90743205E-41   0.40665301E+01   0.40665301E+01
   0.36500   0.12118394E-40   0.41371247E+01   0.41371247E+01
   0.37500   0.15694055E-40   0.42108897E+01   0.42108897E+01
   0.38500   0.19803379E-40   0.42880172E+01   0.42880172E+01
   0.39500   0.24429342E-40   0.43686944E+01   0.43686944E+01
   0.40500   0.29532055E-40   0.44531000E+01   0.44531000E+01
   0.41500   0.35045188E-40   0.45413985E+01   0.45413985E+01
   0.42500   0.40872911E-40   0.46337353E+01   0.46337353E+01
   0.43500   0.46887725E-40   0.47302287E+01   0.47302287E+01
   0.44500   0.52929676E-40   0.48309619E+01   0.48309619E+01
   0.45500   0.58807474E-40   0.49359730E+01   0.49359730E+01
   0.46500   0.64302090E-40   0.50452443E+01   0.50452443E+01
   0.47500   0.69173378E-40   0.51586892E+01   0.51586892E+01
   0.48500   0.73170159E-40   0.52761397E+01   0.52761397E+01
   0.49500   0.76043985E-40   0.53973314E+01   0.53973314E+01
 
# k-point:    19
# k  =  0.142182,   0.574623,   0.000000, w=   0.031250
# kb =  0.250000,   0.500000,   0.000000, w=   0.031250
  -0.49500   0.19171434E-44   0.47062964E+01   0.47062964E+01
  -0.48500   0.18754518E-44   0.46288585E+01   0.46288585E+01
  -0.47500   0.18276861E-44   0.45500618E+01   0.45500618E+01
  -0.46500   0.17750080E-44   0.44704734E+01   0.44704734E+01
  -0.45500   0.17185476E-44   0.43905855E+01   0.43905855E+01
  -0.44500   0.16593686E-44   0.43108190E+01   0.43108190E+01
  -0.43500   0.15984447E-44   0.42315289E+01   0.42315289E+01
  -0.42500   0.15366474E-44   0.41530109E+01   0.41530109E+01
  -0.41500   0.14747412E-44   0.40755094E+01   0.40755094E+01
  -0.40500   0.14133880E-44   0.39992330E+01   0.39992330E+01
  -0.39500   0.13531899E-44   0.39244715E+01   0.39244715E+01
  -0.38500   0.12942790E-44   0.38503762E+01   0.38503762E+01
  -0.37500   0.12375803E-44   0.37786464E+01   0.37786464E+01
  -0.36500   0.11830651E-44   0.37083761E+01   0.37083761E+01
  -0.35500   0.11310156E-44   0.36397453E+01   0.36397453E+01
  -0.34500   0.10816158E-44   0.35727936E+01   0.35727936E+01
  -0.33500   0.10349979E-44   0.35075348E+01   0.35075348E+01
  -0.32500   0.99125312E-45   0.34439686E+01   0.34439686E+01
  -0.31500   0.95043967E-45   0.33820843E+01   0.33820843E+01
  -0.30500   0.91258908E-45   0.33218633E+01   0.33218633E+01
  -0.29500   0.87771193E-45   0.32632810E+01   0.32632810E+01
  -0.28500   0.84580283E-45   0.32063078E+01   0.32063078E+01
  -0.27500   0.81684482E-45   0.31509106E+01   0.31509106E+01
  -0.26500   0.79081317E-45   0.30970534E+01   0.30970534E+01
  -0.25500   0.76767886E-45   0.30446986E+01   0.30446986E+01
  -0.24500   0.74741155E-45   0.29938068E+01   0.29938068E+01
  -0.23500   0.72998236E-45   0.29443383E+01   0.29443383E+01
  -0.22500   0.71536641E-45   0.28962525E+01   0.28962525E+01
  -0.21500   0.70354513E-45   0.28495092E+01   0.28495092E+01
  -0.20500   0.69450860E-45   0.28040681E+01   0.28040681E+01
  -0.19500   0.68825781E-45   0.27598894E+01   0.27598894E+01
  -0.18500   0.68480698E-45   0.27169340E+01   0.27169340E+01
  -0.17500   0.68418603E-45   0.26751633E+01   0.26751633E+01
  -0.16500   0.68644324E-45   0.26345398E+01   0.26345398E+01
  -0.15500   0.69164832E-45   0.25950267E+01   0.25950267E+01
  -0.14500   0.69989578E-45   0.25565883E+01   0.25565883E+01
  -0.13500   0.71130898E-45   0.25191899E+01   0.25191899E+01
  -0.12500   0.72604487E-45   0.24827978E+01   0.24827978E+01
  -0.11500   0.74429970E-45   0.24473794E+01   0.24473794E+01
  -0.10500   0.76631601E-45   0.24129029E+01   0.24129029E+01
  -0.09500   0.79239106E-45   0.23793379E+01   0.23793379E+01
  -0.08500   0.82288746E-45   0.23466548E+01   0.23466548E+01
  -0.07500   0.85824632E-45   0.23148251E+01   0.23148251E+01
  -0.06500   0.89900391E-45   0.22838213E+01   0.22838213E+01
  -0.05500   0.94581283E-45   0.22536168E+01   0.22536168E+01
  -0.04500   0.99946917E-45   0.22241861E+01   0.22241861E+01
  -0.03500   0.10609479E-44   0.21955046E+01   0.21955046E+01
  -0.02500   0.11314490E-44   0.21675484E+01   0.21675484E+01
  -0.01500   0.12124594E-44   0.21402947E+01   0.21402947E+01
  -0.00500   0.13058352E-44   0.21137214E+01   0.21137214E+01
   0.00500   0.14139148E-44   0.20878074E+01   0.20878074E+01
   0.01500   0.15396758E-44   0.20625322E+01   0.20625322E+01
   0.02500   0.16869555E-44   0.20378763E+01   0.20378763E+01
   0.03500   0.18607694E-44   0.20138206E+01   0.20138206E+01
   0.04500   0.20677795E-44   0.19903471E+01   0.19903471E+01
   0.05500   0.23170028E-44   0.19674383E+01   0.19674383E+01
   0.06500   0.26209138E-44   0.19450774E+01   0.19450774E+01
   0.07500   0.29972213E-44   0.19232484E+01   0.19232484E+01
   0.08500   0.34718543E-44   0.19019359E+01   0.19019359E+01
   0.09500   0.40842304E-44   0.18811253E+01   0.18811253E+01
   0.10500   0.48971405E-44   0.18608030E+01   0.18608030E+01
   0.11500   0.60167747E-44   0.18409563E+01   0.18409563E+01
   0.12500   0.76375965E-44   0.18215743E+01   0.18215743E+01
   0.13500   0.10157838E-43   0.18026491E+01   0.18026491E+01
   0.14500   0.14544584E-43   0.17841808E+01   0.17841808E+01
   0.15500   0.23970087E-43   0.17661975E+01   0.17661975E+01
   0.16500   0.60899312E-43   0.17489679E+01   0.17489679E+01
   0.17500   0.71255495E-40   0.26187107E+01   0.26187107E+01
   0.18500   0.11631502E-39   0.32227266E+01   0.32227266E+01
   0.19500   0.14298818E-39   0.36355233E+01   0.36355233E+01
   0.20500   0.16076789E-39   0.39675354E+01   0.39675354E+01
   0.21500   0.17256007E-39   0.42515502E+01   0.42515502E+01
   0.22500   0.17975520E-39   0.45026123E+01   0.45026123E+01
   0.23500   0.18318113E-39   0.47290476E+01   0.47290476E+01
   0.24500   0.18341314E-39   0.49359725E+01   0.49359725E+01
   0.25500   0.18090450E-39   0.51267364E+01   0.51267364E+01
   0.26500   0.17605053E-39   0.53036131E+01   0.53036131E+01
   0.27500   0.16922309E-39   0.54681703E+01   0.54681703E+01
   0.28500   0.16078964E-39   0.56214821E+01   0.56214821E+01
   0.29500   0.15112314E-39   0.57642599E+01   0.57642599E+01
   0.30500   0.14060551E-39   0.58969378E+01   0.58969378E+01
   0.31500   0.12962631E-39   0.60197310E+01   0.60197310E+01
   0.32500   0.11857706E-39   0.61326795E+01   0.61326795E+01
   0.33500   0.10784215E-39   0.62356833E+01   0.62356833E+01
   0.34500   0.97786591E-40   0.63285344E+01   0.63285344E+01
   0.35500   0.88741560E-40   0.64109470E+01   0.64109470E+01
   0.36500   0.80988938E-40   0.64825899E+01   0.64825899E+01
   0.37500   0.74746165E-40   0.65431199E+01   0.65431199E+01
   0.38500   0.70153270E-40   0.65922183E+01   0.65922183E+01
   0.39500   0.67263902E-40   0.66296267E+01   0.66296267E+01
   0.40500   0.66042013E-40   0.66551825E+01   0.66551825E+01
   0.41500   0.66365308E-40   0.66688499E+01   0.66688499E+01
   0.42500   0.68035674E-40   0.66707434E+01   0.66707434E+01
   0.43500   0.70795786E-40   0.66611424E+01   0.66611424E+01
   0.44500   0.74350086E-40   0.66404927E+01   0.66404927E+01
   0.45500   0.78387636E-40   0.66093977E+01   0.66093977E+01
   0.46500   0.82604182E-40   0.65685976E+01   0.65685976E+01
   0.47500   0.86721063E-40   0.65189414E+01   0.65189414E+01
   0.48500   0.90499358E-40   0.64613533E+01   0.64613533E+01
   0.49500   0.93748554E-40   0.63967983E+01   0.63967983E+01
 
# k-point:    20
# k  =  0.284365,   0.492534,   0.000000, w=   0.031250
# kb =  0.500000,   0.500000,   0.000000, w=   0.031250
  -0.49500   0.87801150E-45   0.40445096E+01   0.40445096E+01
  -0.48500   0.85199051E-45   0.39695224E+01   0.39695224E+01
  -0.47500   0.82565743E-45   0.38967268E+01   0.38967268E+01
  -0.46500   0.79915572E-45   0.38260546E+01   0.38260546E+01
  -0.45500   0.77261696E-45   0.37574393E+01   0.37574393E+01
  -0.44500   0.74616136E-45   0.36908169E+01   0.36908169E+01
  -0.43500   0.71989876E-45   0.36261287E+01   0.36261287E+01
  -0.42500   0.69393185E-45   0.35633351E+01   0.35633351E+01
  -0.41500   0.66839720E-45   0.35026293E+01   0.35026293E+01
  -0.40500   0.64309477E-45   0.34424758E+01   0.34424758E+01
  -0.39500   0.61851906E-45   0.33850563E+01   0.33850563E+01
  -0.38500   0.59450207E-45   0.33290938E+01   0.33290938E+01
  -0.37500   0.57112617E-45   0.32746741E+01   0.32746741E+01
  -0.36500   0.54844424E-45   0.32217626E+01   0.32217626E+01
  -0.35500   0.52650101E-45   0.31703139E+01   0.31703139E+01
  -0.34500   0.50533548E-45   0.31202811E+01   0.31202811E+01
  -0.33500   0.48498198E-45   0.30716180E+01   0.30716180E+01
  -0.32500   0.46547082E-45   0.30242798E+01   0.30242798E+01
  -0.31500   0.44682900E-45   0.29782229E+01   0.29782229E+01
  -0.30500   0.42908071E-45   0.29334054E+01   0.29334054E+01
  -0.29500   0.41224796E-45   0.28897867E+01   0.28897867E+01
  -0.28500   0.39635111E-45   0.28473277E+01   0.28473277E+01
  -0.27500   0.38140941E-45   0.28059909E+01   0.28059909E+01
  -0.26500   0.36744158E-45   0.27657398E+01   0.27657398E+01
  -0.25500   0.35446639E-45   0.27265396E+01   0.27265396E+01
  -0.24500   0.34250317E-45   0.26883565E+01   0.26883565E+01
  -0.23500   0.33157251E-45   0.26511582E+01   0.26511582E+01
  -0.22500   0.32169685E-45   0.26149134E+01   0.26149134E+01
  -0.21500   0.31290118E-45   0.25795919E+01   0.25795919E+01
  -0.20500   0.30521382E-45   0.25451648E+01   0.25451648E+01
  -0.19500   0.29866722E-45   0.25116042E+01   0.25116042E+01
  -0.18500   0.29329893E-45   0.24788832E+01   0.24788832E+01
  -0.17500   0.28915262E-45   0.24469757E+01   0.24469757E+01
  -0.16500   0.28627935E-45   0.24158569E+01   0.24158569E+01
  -0.15500   0.28473889E-45   0.23855026E+01   0.23855026E+01
  -0.14500   0.28460142E-45   0.23558897E+01   0.23558897E+01
  -0.13500   0.28594946E-45   0.23269957E+01   0.23269957E+01
  -0.12500   0.28888012E-45   0.22987992E+01   0.22987992E+01
  -0.11500   0.29350790E-45   0.22712792E+01   0.22712792E+01
  -0.10500   0.29996799E-45   0.22444159E+01   0.22444159E+01
  -0.09500   0.30842035E-45   0.22181897E+01   0.22181897E+01
  -0.08500   0.31905470E-45   0.21925821E+01   0.21925821E+01
  -0.07500   0.33209667E-45   0.21675751E+01   0.21675751E+01
  -0.06500   0.34781554E-45   0.21431514E+01   0.21431514E+01
  -0.05500   0.36653395E-45   0.21192942E+01   0.21192942E+01
  -0.04500   0.38864028E-45   0.20959873E+01   0.20959873E+01
  -0.03500   0.41460451E-45   0.20732152E+01   0.20732152E+01
  -0.02500   0.44499879E-45   0.20509628E+01   0.20509628E+01
  -0.01500   0.48052455E-45   0.20292156E+01   0.20292156E+01
  -0.00500   0.52204835E-45   0.20079597E+01   0.20079597E+01
   0.00500   0.57065028E-45   0.19871814E+01   0.19871814E+01
   0.01500   0.62769002E-45   0.19668678E+01   0.19668678E+01
   0.02500   0.69489871E-45   0.19470063E+01   0.19470063E+01
   0.03500   0.77450870E-45   0.19275847E+01   0.19275847E+01
   0.04500   0.86944110E-45   0.19085915E+01   0.19085915E+01
   0.05500   0.98358260E-45   0.18900152E+01   0.18900152E+01
   0.06500   0.11222054E-44   0.18718453E+01   0.18718453E+01
   0.07500   0.12926236E-44   0.18540712E+01   0.18540712E+01
   0.08500   0.15052557E-44   0.18366832E+01   0.18366832E+01
   0.09500   0.17754185E-44   0.18196721E+01   0.18196721E+01
   0.10500   0.21265095E-44   0.18030293E+01   0.18030293E+01
   0.11500   0.25960114E-44   0.17867472E+01   0.17867472E+01
   0.12500   0.32477271E-44   0.17708197E+01   0.17708197E+01
   0.13500   0.41993445E-44   0.17552437E+01   0.17552437E+01
   0.14500   0.56936623E-44   0.17400220E+01   0.17400220E+01
   0.15500   0.83236954E-44   0.17251738E+01   0.17251738E+01
   0.16500   0.14028265E-43   0.17107805E+01   0.17107805E+01
   0.17500   0.35597099E-43   0.16974152E+01   0.16974152E+01
   0.18500   0.49374193E-40   0.39424268E+01   0.39424268E+01
   0.19500   0.77502114E-40   0.54789990E+01   0.54789990E+01
   0.20500   0.89880626E-40   0.62922035E+01   0.62922035E+01
   0.21500   0.97184370E-40   0.68047373E+01   0.68047373E+01
   0.22500   0.10234465E-39   0.71431803E+01   0.71431803E+01
   0.23500   0.10651502E-39   0.73674669E+01   0.73674669E+01
   0.24500   0.11020153E-39   0.75117539E+01   0.75117539E+01
   0.25500   0.11362881E-39   0.75976390E+01   0.75976390E+01
   0.26500   0.11688758E-39   0.76397227E+01   0.76397227E+01
   0.27500   0.12000202E-39   0.76483469E+01   0.76483469E+01
   0.28500   0.12296299E-39   0.76310929E+01   0.76310929E+01
   0.29500   0.12574546E-39   0.75936654E+01   0.75936654E+01
   0.30500   0.12831800E-39   0.75404459E+01   0.75404459E+01
   0.31500   0.13064806E-39   0.74748549E+01   0.74748549E+01
   0.32500   0.13270497E-39   0.73995977E+01   0.73995977E+01
   0.33500   0.13446158E-39   0.73168370E+01   0.73168370E+01
   0.34500   0.13589511E-39   0.72283168E+01   0.72283168E+01
   0.35500   0.13698756E-39   0.71354526E+01   0.71354526E+01
   0.36500   0.13772574E-39   0.70394005E+01   0.70394005E+01
   0.37500   0.13810119E-39   0.69411078E+01   0.69411078E+01
   0.38500   0.13810989E-39   0.68413540E+01   0.68413540E+01
   0.39500   0.13775201E-39   0.67407810E+01   0.67407810E+01
   0.40500   0.13703151E-39   0.66399186E+01   0.66399186E+01
   0.41500   0.13595578E-39   0.65392036E+01   0.65392036E+01
   0.42500   0.13453524E-39   0.64389957E+01   0.64389957E+01
   0.43500   0.13278297E-39   0.63395908E+01   0.63395908E+01
   0.44500   0.13071435E-39   0.62412309E+01   0.62412309E+01
   0.45500   0.12834666E-39   0.61441131E+01   0.61441131E+01
   0.46500   0.12569881E-39   0.60483967E+01   0.60483967E+01
   0.47500   0.12279097E-39   0.59542092E+01   0.59542092E+01
   0.48500   0.11964430E-39   0.58616511E+01   0.58616511E+01
   0.49500   0.11628069E-39   0.57708000E+01   0.57708000E+01
 
 ==============================================================
 Results:
 Voltage, Current(A) =   9.99998931E-01  7.55851130E-46
 ==============================================================
>> End of run:  13-JUN-2018  22:48:39
