Siesta Version (Arch framework):
agarcia@siesta.arch--2005/siesta-devel--agarcia--1.5--patch-11
Architecture  : powerpc-apple-darwin8.3.0--Xlf
Compiler flags: xlf95 -g  -O2 -qarch=auto -qtune=auto -qcache=auto -qnolm
SERIAL version

* Running in serial mode
>> Start of run:   7-DEC-2005  12:23:25

                           ***********************       
                           *  WELCOME TO SIESTA  *       
                           ***********************       

reinit: Reading from standard input
************************** Dump of input data file ****************************
# -----------------------------------------------------------------------------
# Primitive c-Si supercell, using STRUCT file
# Annealing, HarrisFunctional
# Alberto Garcia, August-December 2005
# -----------------------------------------------------------------------------
SystemName          Primitive silicon, Annealing, Harris, Struct File
SystemLabel         si
NumberOfAtoms       2
NumberOfSpecies     1
MD.Use-Struct-File  T   # Structural information is read from si.STRUCT_IN
%block ChemicalSpeciesLabel
 1  14  Si
%endblock ChemicalSpeciesLabel
PAO.BasisSize       SZ
MeshCutoff          100.0 Ry
%block kgrid-monkhorst-pack
  2 0 0  0.5
  0 2 0  0.5
  0 0 2  0.5
%endblock kgrid-monkhorst-pack
MaxSCFIterations    20
DM.MixingWeight      0.2
DM.NumberPulay       3
DM.Tolerance         1.d-3
SolutionMethod       diagon
ElectronicTemperature  100 K
HarrisFunctional T
MD.TypeOfRun         anneal
MD.AnnealOptions  Temperature
MD.InitialTemperature 100 K
MD.TargetTemperature 600 K
MD.LengthTimeStep  1 fs
MD.TauRelax       25 fs
MD.FinalTimeStep  120
************************** End of input data file *****************************

reinit: -----------------------------------------------------------------------
reinit: System Name: Primitive silicon, Annealing, Harris, Struct File          
reinit: -----------------------------------------------------------------------
reinit: System Label: si                  
reinit: -----------------------------------------------------------------------

initatom: Reading input for the pseudopotentials and atomic orbitals ----------
 Species number:  1  Label: Si Atomic number: 14
Ground state valence configuration:   3s02  3p02
Reading pseudopotential information in formatted form from Si.psf
For Si, standard SIESTA heuristics set lmxkb to 2
 (one more than the basis l, including polarization orbitals).
Use PS.lmax or PS.KBprojectors blocks to override.

<basis_specs>
===============================================================================
Si                   Z=  14    Mass=  28.090        Charge=  0.0000    
Lmxo=1 Lmxkb=2     BasisType=split      Semic=F
L=0  Nsemic=0  Cnfigmx=3
          n=1  nzeta=1  polorb=0
               vcte:    0.0000    
               rinn:    0.0000    
                rcs:    0.0000    
            lambdas:    1.0000    
L=1  Nsemic=0  Cnfigmx=3
          n=1  nzeta=1  polorb=0
               vcte:    0.0000    
               rinn:    0.0000    
                rcs:    0.0000    
            lambdas:    1.0000    
-------------------------------------------------------------------------------
L=0  Nkbl=1  erefs: 0.17977+309
L=1  Nkbl=1  erefs: 0.17977+309
L=2  Nkbl=1  erefs: 0.17977+309
===============================================================================
</basis_specs>

atom: Called for Si  (Z =  14)

read_vps: Pseudopotential generation method:
read_vps: ATM3      Troullier-Martins                       

read_vps: Valence configuration (pseudopotential and basis set generation):
3s( 2.00) rc: 1.89
3p( 2.00) rc: 1.89
3d( 0.00) rc: 1.89
Total valence charge:    4.00000

xc_check: Exchange-correlation functional:
xc_check: Ceperley-Alder
V l=0 = -2*Zval/r beyond r=  2.5494
V l=1 = -2*Zval/r beyond r=  2.5494
V l=2 = -2*Zval/r beyond r=  2.5494
All V_l potentials equal beyond r=  1.8652
This should be close to max(r_c) in ps generation
All pots = -2*Zval/r beyond r=  2.5494
Using large-core scheme for Vlocal

atom: Estimated core radius    2.54944

atom: Including non-local core corrections could be a good idea
atom: Maximum radius for 4*pi*r*r*local-pseudopot. charge    2.85303
atom: Maximum radius for r*vlocal+2*Zval:    2.58151
GHOST: No ghost state for L =  0
GHOST: No ghost state for L =  1
GHOST: No ghost state for L =  2

KBgen: Kleinman-Bylander projectors: 
   l= 0   rc=  1.936440   el= -0.796617   Ekb=  4.661340   kbcos=  0.299756
   l= 1   rc=  1.936440   el= -0.307040   Ekb=  1.494238   kbcos=  0.301471
   l= 2   rc=  1.936440   el=  0.002313   Ekb= -2.808672   kbcos= -0.054903

KBgen: Total number of  Kleinman-Bylander projectors:    9
atom: -------------------------------------------------------------------------

atom: SANKEY-TYPE ORBITALS:

SPLIT: Orbitals with angular momentum L= 0

SPLIT: Basis orbitals for state 3s

SPLIT: PAO cut-off radius determinated from an
SPLIT: energy shift=  0.020000 Ry

   izeta = 1
                 lambda =    1.000000
                     rc =    5.007352
                 energy =   -0.777669
                kinetic =    0.573829
    potential(screened) =   -1.351499
       potential(ionic) =   -3.827441

SPLIT: Orbitals with angular momentum L= 1

SPLIT: Basis orbitals for state 3p

SPLIT: PAO cut-off radius determinated from an
SPLIT: energy shift=  0.020000 Ry

   izeta = 1
                 lambda =    1.000000
                     rc =    6.270866
                 energy =   -0.288955
                kinetic =    0.877930
    potential(screened) =   -1.166885
       potential(ionic) =   -3.426998
atom: Total number of Sankey-type orbitals:  4

atm_pop: Valence configuration(local Pseudopot. screening):
 3s( 2.00)                                                            
 3p( 2.00)                                                            
Vna: chval, zval:    4.00000   4.00000

Vna:  Cut-off radius for the neutral-atom potential:   6.270866

atom: _________________________________________________________________________

prinput: Basis input ----------------------------------------------------------

PAO.BasisType split     

%block ChemicalSpeciesLabel
    1   14 Si                      # Species index, atomic number, species label
%endblock ChemicalSpeciesLabel

%block PAO.Basis                 # Define Basis set
Si          2                    # Species label, number of l-shells
 n=3   0   1                         # n, l, Nzeta 
   5.007   
   1.000   
 n=3   1   1                         # n, l, Nzeta 
   6.271   
   1.000   
%endblock PAO.Basis

prinput: ----------------------------------------------------------------------


siesta: ******************** Simulation parameters ****************************
siesta:
siesta: The following are some of the parameters of the simulation.
siesta: A complete list of the parameters used, including defect values,
siesta: can be found in file out.fdf
siesta:
  -- Read structural information from si.STRUCT_IN
redata: Number of spin components        =     1
redata: Long output                      =     F
redata: Number of Atomic Species         =     1
redata: Charge density info will appear in .RHO file
redata: Write Mulliken Pop.              =     NO
redata: Mesh Cutoff                      =   100.0000  Ry
redata: Net charge of the system         =     0.0000 |e|
redata: Max. number of SCF Iter          =    20
redata: One Pulay mixing every           =     3 iterations
redata: Mix DM in first SCF step ?       =     F
redata: Write Pulay info on disk?        =     F
redata: New DM Mixing Weight             =     0.2000
redata: New DM Occupancy tolerance       = 0.000000000001
redata: No kicks to SCF
redata: DM Mixing Weight for Kicks       =     0.5000
redata: DM Tolerance for SCF             =     0.001000
redata: Require Energy convergence for SCF =     F
redata: DM Energy tolerance for SCF      =     0.000100 eV
redata: Using Saved Data (generic)   =     F
redata: Use continuation files for DM    =     F
redata: Neglect nonoverlap interactions  =     F
redata: Method of Calculation            =     Diagonalization
redata: Divide and Conquer               =     T
redata: Electronic Temperature           =     0.0006  Ry
redata: Fix the spin of the system       =     F
redata: Dynamics option                  =     Annealing MD run
redata: Broyden Optimization             = F
redata: Initial MD time step             =     1
redata:   Final MD time step             =   120
redata: Length of MD time step           =     1.0000  fs
redata: Initial Temperature of MD run    =   100.0000  K
redata: Annealing Option                 = Temperature and Pressure
redata: Target Temperature               =   600.0000  Kelvin
redata: Target Pressure                  =     0.0000  Ry/Bohr**3
redata: Annealing Relaxation Time        =    25.0000  fs
redata: Approx. Bulk Modulus             =     0.0068  Ry/Bohr**3
redata: ***********************************************************************

siesta: Atomic coordinates (Bohr) and species
siesta:      0.00000   0.00000   0.00000  1        1
siesta:      2.56530   2.56530   2.56530  1        2

initatomlists: Number of atoms, orbitals, and projectors:         2        8       18

siesta: System type = bulk      

siesta: k-grid: Number of k-points =     4
siesta: k-grid: Cutoff             =     3.840 Ang
siesta: k-grid: Supercell and displacements
siesta: k-grid:    2   0   0      0.500
siesta: k-grid:    0   2   0      0.500
siesta: k-grid:    0   0   2      0.500

superc: Internal auxiliary supercell:     5 x     5 x     5  =     125
superc: Number of atoms, orbitals, and projectors:    250  1000  2250

* Maximum dynamic memory allocated =     1 MB

siesta:                 ==============================
                            Begin MD step =      1
                        ==============================

superc: Internal auxiliary supercell:     5 x     5 x     5  =     125
superc: Number of atoms, orbitals, and projectors:    250  1000  2250

InitMesh: MESH =    20 x    20 x    20 =        8000
InitMesh: Mesh cutoff (required, used) =   100.000   112.482 Ry

* Maximum dynamic memory allocated =     5 MB

stepf: Fermi-Dirac step function

siesta: Program's energy decomposition (eV):
siesta: Eions   =       380.802124
siesta: Ena     =       115.502328
siesta: Ekin    =        78.997046
siesta: Enl     =        35.834927
siesta: DEna    =         0.000000
siesta: DUscf   =         0.000000
siesta: DUext   =         0.000000
siesta: Exc     =       -64.548619
siesta: eta*DQ  =         0.000000
siesta: Emadel  =         0.000000
siesta: Ekinion =         0.000000
siesta: Eharris =      -213.847468
siesta: Etot    =      -215.016441
siesta: FreeEng =      -215.016441

siesta: Eharris(eV) =    -213.847468


siesta: Eharris(eV) =    -213.847468

timer: Routine,Calls,Time,% = IterSCF        1       0.670  72.83
elaps: Routine,Calls,Wall,% = IterSCF        1       0.670  72.83

siesta: E_KS - E_eggbox =      -213.7687

siesta: Atomic forces (eV/Ang):
----------------------------------------
 Tot    0.000001    0.000000    0.000001
----------------------------------------
 Max    0.193665
 Res    0.193665    sqrt( Sum f_i^2 / 3N )
----------------------------------------
 Max    0.193665    constrained

Stress-tensor-Voigt (kbar):      -58.55      -58.79      -58.44       81.49       81.34       81.22
Target enthalpy (eV/cell)     -213.7687

siesta: Stress tensor (static) (eV/Ang**3):
        -0.036465    0.050723    0.050723
         0.050723   -0.036465    0.050723
         0.050723    0.050723   -0.036465

siesta: Pressure (static):         58.42370629  kBar

siesta: Stress tensor (total) (eV/Ang**3):
        -0.036546    0.050860    0.050695
         0.050860   -0.036695    0.050769
         0.050695    0.050769   -0.036474

siesta: Pressure (total):         58.59492783  kBar
 Anneal: Kinetic Energy=  0.949999240477009924E-03
 Anneal: Velocity scale factor =  1.09544511784030973
 Anneal: Cell scale factor =  1.00233563577490492

siesta: Temp_ion =     120.000 K

* Maximum dynamic memory allocated =     5 MB

siesta:                 ==============================
                            Begin MD step =      2
                        ==============================

superc: Internal auxiliary supercell:     5 x     5 x     5  =     125
superc: Number of atoms, orbitals, and projectors:    250  1000  2250

InitMesh: MESH =    20 x    20 x    20 =        8000
InitMesh: Mesh cutoff (required, used) =   100.000   112.579 Ry

siesta: Eharris(eV) =    -213.840609


siesta: Eharris(eV) =    -213.840609


siesta: Atomic forces (eV/Ang):
----------------------------------------
 Tot   -0.000001    0.000000    0.000000
----------------------------------------
 Max    0.267684
 Res    0.202982    sqrt( Sum f_i^2 / 3N )
----------------------------------------
 Max    0.267684    constrained

Stress-tensor-Voigt (kbar):      -60.64      -60.13      -60.26       80.98       79.85       84.75
Target enthalpy (eV/cell)     -213.7622

siesta: Stress tensor (static) (eV/Ang**3):
        -0.037752    0.050382    0.052927
         0.050382   -0.037254    0.049785
         0.052927    0.049785   -0.037602

siesta: Pressure (static):         60.14018535  kBar

siesta: Stress tensor (total) (eV/Ang**3):
        -0.037849    0.050546    0.052894
         0.050546   -0.037530    0.049841
         0.052894    0.049841   -0.037614

siesta: Pressure (total):         60.34574904  kBar
 Anneal: Kinetic Energy=  0.132018626328429356E-02
 Anneal: Velocity scale factor =  1.06428509773335445
 Anneal: Cell scale factor =  1.00240954224502454

siesta: Temp_ion =     157.408 K

* Maximum dynamic memory allocated =     5 MB

siesta:                 ==============================
                            Begin MD step =      3
                        ==============================

superc: Internal auxiliary supercell:     5 x     5 x     5  =     125
superc: Number of atoms, orbitals, and projectors:    250  1000  2250

InitMesh: MESH =    20 x    20 x    20 =        8000
InitMesh: Mesh cutoff (required, used) =   100.000   112.661 Ry

siesta: Eharris(eV) =    -213.834938


siesta: Eharris(eV) =    -213.834938


siesta: Atomic forces (eV/Ang):
----------------------------------------
 Tot    0.000001   -0.000000    0.000000
----------------------------------------
 Max    0.342461
 Res    0.223676    sqrt( Sum f_i^2 / 3N )
----------------------------------------
 Max    0.342461    constrained

Stress-tensor-Voigt (kbar):      -61.67      -61.15      -60.35       80.87       77.77       87.31
Target enthalpy (eV/cell)     -213.7568

siesta: Stress tensor (static) (eV/Ang**3):
        -0.038348    0.050256    0.054550
         0.050256   -0.037822    0.048454
         0.054550    0.048454   -0.037648

siesta: Pressure (static):         60.78629148  kBar

siesta: Stress tensor (total) (eV/Ang**3):
        -0.038488    0.050476    0.054496
         0.050476   -0.038166    0.048539
         0.054496    0.048539   -0.037669

siesta: Pressure (total):         61.05625963  kBar
 Anneal: Kinetic Energy=  0.161975347616004264E-02
 Anneal: Velocity scale factor =  1.04917207947484514
 Anneal: Cell scale factor =  1.00241391188597673

siesta: Temp_ion =     187.680 K

* Maximum dynamic memory allocated =     5 MB

siesta:                 ==============================
                            Begin MD step =      4
                        ==============================

superc: Internal auxiliary supercell:     5 x     5 x     5  =     125
superc: Number of atoms, orbitals, and projectors:    250  1000  2250

InitMesh: MESH =    20 x    20 x    20 =        8000
InitMesh: Mesh cutoff (required, used) =   100.000   112.725 Ry

siesta: Eharris(eV) =    -213.830170


siesta: Eharris(eV) =    -213.830170


siesta: Atomic forces (eV/Ang):
----------------------------------------
 Tot   -0.000000    0.000001   -0.000001
----------------------------------------
 Max    0.420505
 Res    0.255072    sqrt( Sum f_i^2 / 3N )
----------------------------------------
 Max    0.420505    constrained

Stress-tensor-Voigt (kbar):      -63.13      -62.27      -61.48       80.14       75.84       89.92
Target enthalpy (eV/cell)     -213.7522

siesta: Stress tensor (static) (eV/Ang**3):
        -0.039220    0.049751    0.056199
         0.049751   -0.038475    0.047222
         0.056199    0.047222   -0.038339

siesta: Pressure (static):         61.96988500  kBar

siesta: Stress tensor (total) (eV/Ang**3):
        -0.039401    0.050016    0.056122
         0.050016   -0.038865    0.047334
         0.056122    0.047334   -0.038372

siesta: Pressure (total):         62.29211508  kBar
 Anneal: Kinetic Energy=  0.185124945639161798E-02
 Anneal: Velocity scale factor =  1.04074971433553443
 Anneal: Cell scale factor =  1.00245972875264089

siesta: Temp_ion =     211.074 K

* Maximum dynamic memory allocated =     5 MB

siesta:                 ==============================
                            Begin MD step =      5
                        ==============================

superc: Internal auxiliary supercell:     5 x     5 x     5  =     125
superc: Number of atoms, orbitals, and projectors:    250  1000  2250

InitMesh: MESH =    20 x    20 x    20 =        8000
InitMesh: Mesh cutoff (required, used) =   100.000   112.762 Ry

siesta: Eharris(eV) =    -213.826490


siesta: Eharris(eV) =    -213.826490


siesta: Atomic forces (eV/Ang):
----------------------------------------
 Tot    0.000000    0.000000    0.000000
----------------------------------------
 Max    0.514361
 Res    0.304567    sqrt( Sum f_i^2 / 3N )
----------------------------------------
 Max    0.514361    constrained

Stress-tensor-Voigt (kbar):      -63.90      -62.41      -62.28       79.19       72.23       93.95
Target enthalpy (eV/cell)     -213.7487

siesta: Stress tensor (static) (eV/Ang**3):
        -0.039664    0.049126    0.058737
         0.049126   -0.038536    0.044942
         0.058737    0.044942   -0.038826

siesta: Pressure (static):         62.49965947  kBar

siesta: Stress tensor (total) (eV/Ang**3):
        -0.039883    0.049427    0.058638
         0.049427   -0.038952    0.045080
         0.058638    0.045080   -0.038871

siesta: Pressure (total):         62.86238826  kBar
 Anneal: Kinetic Energy=  0.201330288655766562E-02
 Anneal: Velocity scale factor =  1.03597618605814779
 Anneal: Cell scale factor =  1.00249260626634307

siesta: Temp_ion =     227.450 K

* Maximum dynamic memory allocated =     5 MB

siesta:                 ==============================
                            Begin MD step =      6
                        ==============================

superc: Internal auxiliary supercell:     5 x     5 x     5  =     125
superc: Number of atoms, orbitals, and projectors:    250  1000  2250

InitMesh: MESH =    20 x    20 x    20 =        8000
InitMesh: Mesh cutoff (required, used) =   100.000   112.771 Ry

siesta: Eharris(eV) =    -213.823727


siesta: Eharris(eV) =    -213.823727


siesta: Atomic forces (eV/Ang):
----------------------------------------
 Tot   -0.000001   -0.000000   -0.000000
----------------------------------------
 Max    0.600771
 Res    0.355417    sqrt( Sum f_i^2 / 3N )
----------------------------------------
 Max    0.600771    constrained

Stress-tensor-Voigt (kbar):      -64.66      -61.88      -62.05       77.95       67.48       98.32
Target enthalpy (eV/cell)     -213.7461

siesta: Stress tensor (static) (eV/Ang**3):
        -0.040110    0.048325    0.061485
         0.048325   -0.038200    0.041956
         0.061485    0.041956   -0.038669

siesta: Pressure (static):         62.47398315  kBar

siesta: Stress tensor (total) (eV/Ang**3):
        -0.040360    0.048650    0.061364
         0.048650   -0.038623    0.042115
         0.061364    0.042115   -0.038728

siesta: Pressure (total):         62.86512255  kBar
 Anneal: Kinetic Energy=  0.210857962093913146E-02
 Anneal: Velocity scale factor =  1.03350354500212305
 Anneal: Cell scale factor =  1.00248449050820976

siesta: Temp_ion =     237.078 K

* Maximum dynamic memory allocated =     5 MB

siesta:                 ==============================
                            Begin MD step =      7
                        ==============================

superc: Internal auxiliary supercell:     5 x     5 x     5  =     125
superc: Number of atoms, orbitals, and projectors:    250  1000  2250

InitMesh: MESH =    20 x    20 x    20 =        8000
InitMesh: Mesh cutoff (required, used) =   100.000   112.751 Ry

siesta: Eharris(eV) =    -213.821948


siesta: Eharris(eV) =    -213.821948


siesta: Atomic forces (eV/Ang):
----------------------------------------
 Tot    0.000001   -0.000001    0.000000
----------------------------------------
 Max    0.670927
 Res    0.400493    sqrt( Sum f_i^2 / 3N )
----------------------------------------
 Max    0.670927    constrained

Stress-tensor-Voigt (kbar):      -65.60      -62.12      -61.71       77.26       63.98      101.02
Target enthalpy (eV/cell)     -213.7444

siesta: Stress tensor (static) (eV/Ang**3):
        -0.040665    0.047881    0.063193
         0.047881   -0.038358    0.039757
         0.063193    0.039757   -0.038441

siesta: Pressure (static):         62.73343844  kBar

siesta: Stress tensor (total) (eV/Ang**3):
        -0.040941    0.048219    0.063049
         0.048219   -0.038771    0.039932
         0.063049    0.039932   -0.038516

siesta: Pressure (total):         63.14133786  kBar
 Anneal: Kinetic Energy=  0.215024308391620128E-02
 Anneal: Velocity scale factor =  1.03248943872912569
 Anneal: Cell scale factor =  1.00247199857236691

siesta: Temp_ion =     241.288 K

* Maximum dynamic memory allocated =     5 MB

siesta:                 ==============================
                            Begin MD step =      8
                        ==============================

superc: Internal auxiliary supercell:     5 x     5 x     5  =     125
superc: Number of atoms, orbitals, and projectors:    250  1000  2250

InitMesh: MESH =    20 x    20 x    20 =        8000
InitMesh: Mesh cutoff (required, used) =   100.000   112.707 Ry

siesta: Eharris(eV) =    -213.821301


siesta: Eharris(eV) =    -213.821301


siesta: Atomic forces (eV/Ang):
----------------------------------------
 Tot    0.000000    0.000000    0.000001
----------------------------------------
 Max    0.738142
 Res    0.447084    sqrt( Sum f_i^2 / 3N )
----------------------------------------
 Max    0.738142    constrained

Stress-tensor-Voigt (kbar):      -66.82      -61.84      -61.69       75.98       60.46      103.40
Target enthalpy (eV/cell)     -213.7438

siesta: Stress tensor (static) (eV/Ang**3):
        -0.041408    0.047080    0.064697
         0.047080   -0.038204    0.037546
         0.064697    0.037546   -0.038410

siesta: Pressure (static):         63.03142645  kBar

siesta: Stress tensor (total) (eV/Ang**3):
        -0.041704    0.047421    0.064533
         0.047421   -0.038595    0.037734
         0.064533    0.037734   -0.038501

siesta: Pressure (total):         63.44675859  kBar
 Anneal: Kinetic Energy=  0.215025807281241229E-02
 Anneal: Velocity scale factor =  1.03248908078892376
 Anneal: Cell scale factor =  1.00247220498253253

siesta: Temp_ion =     241.289 K

* Maximum dynamic memory allocated =     5 MB

siesta:                 ==============================
                            Begin MD step =      9
                        ==============================

superc: Internal auxiliary supercell:     5 x     5 x     5  =     125
superc: Number of atoms, orbitals, and projectors:    250  1000  2250

InitMesh: MESH =    20 x    20 x    20 =        8000
InitMesh: Mesh cutoff (required, used) =   100.000   112.637 Ry

siesta: Eharris(eV) =    -213.821910


siesta: Eharris(eV) =    -213.821910


siesta: Atomic forces (eV/Ang):
----------------------------------------
 Tot   -0.000001    0.000000   -0.000000
----------------------------------------
 Max    0.805927
 Res    0.495972    sqrt( Sum f_i^2 / 3N )
----------------------------------------
 Max    0.805927    constrained

Stress-tensor-Voigt (kbar):      -67.22      -60.75      -60.26       74.75       56.00      105.32
Target enthalpy (eV/cell)     -213.7444

siesta: Stress tensor (static) (eV/Ang**3):
        -0.041644    0.046320    0.065920
         0.046320   -0.037557    0.034757
         0.065920    0.034757   -0.037502

siesta: Pressure (static):         62.32690722  kBar

siesta: Stress tensor (total) (eV/Ang**3):
        -0.041955    0.046654    0.065738
         0.046654   -0.037917    0.034954
         0.065738    0.034954   -0.037610

siesta: Pressure (total):         62.74237114  kBar
 Anneal: Kinetic Energy=  0.211533019715229829E-02
 Anneal: Velocity scale factor =  1.03333658966935671
 Anneal: Cell scale factor =  1.00241650497532619

siesta: Temp_ion =     237.760 K

* Maximum dynamic memory allocated =     5 MB

siesta:                 ==============================
                            Begin MD step =     10
                        ==============================

superc: Internal auxiliary supercell:     5 x     5 x     5  =     125
superc: Number of atoms, orbitals, and projectors:    250  1000  2250

InitMesh: MESH =    20 x    20 x    20 =        8000
InitMesh: Mesh cutoff (required, used) =   100.000   112.543 Ry

siesta: Eharris(eV) =    -213.823562


siesta: Eharris(eV) =    -213.823562


siesta: Atomic forces (eV/Ang):
----------------------------------------
 Tot   -0.000001    0.000000   -0.000001
----------------------------------------
 Max    0.862968
 Res    0.540615    sqrt( Sum f_i^2 / 3N )
----------------------------------------
 Max    0.862968    constrained

Stress-tensor-Voigt (kbar):      -67.61      -59.94      -58.43       73.00       51.71      106.87
Target enthalpy (eV/cell)     -213.7460

siesta: Stress tensor (static) (eV/Ang**3):
        -0.041879    0.045245    0.066906
         0.045245   -0.037093    0.032071
         0.066906    0.032071   -0.036344

siesta: Pressure (static):         61.58583641  kBar

siesta: Stress tensor (total) (eV/Ang**3):
        -0.042199    0.045565    0.066705
         0.045565   -0.037413    0.032272
         0.066705    0.032272   -0.036470

siesta: Pressure (total):         61.99528710  kBar
 Anneal: Kinetic Energy=  0.205387887745406891E-02
 Anneal: Velocity scale factor =  1.03489583117077588
 Anneal: Cell scale factor =  1.00234501729860903

siesta: Temp_ion =     231.550 K

* Maximum dynamic memory allocated =     5 MB

siesta:                 ==============================
                            Begin MD step =     11
                        ==============================

superc: Internal auxiliary supercell:     5 x     5 x     5  =     125
superc: Number of atoms, orbitals, and projectors:    250  1000  2250

InitMesh: MESH =    20 x    20 x    20 =        8000
InitMesh: Mesh cutoff (required, used) =   100.000   112.427 Ry

siesta: Eharris(eV) =    -213.826331


siesta: Eharris(eV) =    -213.826331


siesta: Atomic forces (eV/Ang):
----------------------------------------
 Tot    0.000000   -0.000001    0.000000
----------------------------------------
 Max    0.912732
 Res    0.583848    sqrt( Sum f_i^2 / 3N )
----------------------------------------
 Max    0.912732    constrained

Stress-tensor-Voigt (kbar):      -69.05      -60.80      -56.66       72.69       48.22      107.44
Target enthalpy (eV/cell)     -213.7487

siesta: Stress tensor (static) (eV/Ang**3):
        -0.042775    0.045072    0.067278
         0.045072   -0.037674    0.029893
         0.067278    0.029893   -0.035215

siesta: Pressure (static):         61.77197584  kBar

siesta: Stress tensor (total) (eV/Ang**3):
        -0.043099    0.045371    0.067060
         0.045371   -0.037950    0.030094
         0.067060    0.030094   -0.035361

siesta: Pressure (total):         62.17075565  kBar
 Anneal: Kinetic Energy=  0.197577043509136047E-02
 Anneal: Velocity scale factor =  1.03701395007592723
 Anneal: Cell scale factor =  1.00227567242022331

siesta: Temp_ion =     223.657 K

* Maximum dynamic memory allocated =     5 MB

siesta:                 ==============================
                            Begin MD step =     12
                        ==============================

superc: Internal auxiliary supercell:     5 x     5 x     5  =     125
superc: Number of atoms, orbitals, and projectors:    250  1000  2250

InitMesh: MESH =    20 x    20 x    20 =        8000
InitMesh: Mesh cutoff (required, used) =   100.000   112.294 Ry

siesta: Eharris(eV) =    -213.830504


siesta: Eharris(eV) =    -213.830504


siesta: Atomic forces (eV/Ang):
----------------------------------------
 Tot    0.000000    0.000000    0.000000
----------------------------------------
 Max    0.952034
 Res    0.620383    sqrt( Sum f_i^2 / 3N )
----------------------------------------
 Max    0.952034    constrained

Stress-tensor-Voigt (kbar):      -71.19      -62.09      -55.97       72.11       45.17      108.13
Target enthalpy (eV/cell)     -213.7529

siesta: Stress tensor (static) (eV/Ang**3):
        -0.044106    0.044737    0.067720
         0.044737   -0.038525    0.027994
         0.067720    0.027994   -0.034768

siesta: Pressure (static):         62.69880783  kBar

siesta: Stress tensor (total) (eV/Ang**3):
        -0.044430    0.045010    0.067486
         0.045010   -0.038755    0.028190
         0.067486    0.028190   -0.034935

siesta: Pressure (total):         63.08398733  kBar
 Anneal: Kinetic Energy=  0.189110253650355098E-02
 Anneal: Velocity scale factor =  1.03950204217514797
 Anneal: Cell scale factor =  1.00225020250612951

siesta: Temp_ion =     215.101 K

* Maximum dynamic memory allocated =     5 MB

siesta:                 ==============================
                            Begin MD step =     13
                        ==============================

superc: Internal auxiliary supercell:     5 x     5 x     5  =     125
superc: Number of atoms, orbitals, and projectors:    250  1000  2250

InitMesh: MESH =    20 x    20 x    20 =        8000
InitMesh: Mesh cutoff (required, used) =   100.000   112.139 Ry

siesta: Eharris(eV) =    -213.836480


siesta: Eharris(eV) =    -213.836480


siesta: Atomic forces (eV/Ang):
----------------------------------------
 Tot    0.000001    0.000001   -0.000001
----------------------------------------
 Max    0.981142
 Res    0.650945    sqrt( Sum f_i^2 / 3N )
----------------------------------------
 Max    0.981142    constrained

Stress-tensor-Voigt (kbar):      -71.87      -62.38      -54.21       70.85       41.45      107.65
Target enthalpy (eV/cell)     -213.7588

siesta: Stress tensor (static) (eV/Ang**3):
        -0.044536    0.043982    0.067437
         0.043982   -0.038755    0.025682
         0.067437    0.025682   -0.033645

siesta: Pressure (static):         62.45137822  kBar

siesta: Stress tensor (total) (eV/Ang**3):
        -0.044855    0.044223    0.067189
         0.044223   -0.038937    0.025869
         0.067189    0.025869   -0.033837

siesta: Pressure (total):         62.82176413  kBar
 Anneal: Kinetic Energy=  0.180946332622237884E-02
 Anneal: Velocity scale factor =  1.04211521157866649
 Anneal: Cell scale factor =  1.00218192248059657

siesta: Temp_ion =     206.851 K

* Maximum dynamic memory allocated =     5 MB

siesta:                 ==============================
                            Begin MD step =     14
                        ==============================

superc: Internal auxiliary supercell:     5 x     5 x     5  =     125
superc: Number of atoms, orbitals, and projectors:    250  1000  2250

InitMesh: MESH =    20 x    20 x    20 =        8000
InitMesh: Mesh cutoff (required, used) =   100.000   111.968 Ry

siesta: Eharris(eV) =    -213.843954


siesta: Eharris(eV) =    -213.843954


siesta: Atomic forces (eV/Ang):
----------------------------------------
 Tot    0.000000    0.000001   -0.000000
----------------------------------------
 Max    0.998251
 Res    0.677548    sqrt( Sum f_i^2 / 3N )
----------------------------------------
 Max    0.998251    constrained

Stress-tensor-Voigt (kbar):      -72.57      -62.53      -52.33       69.33       37.50      106.48
Target enthalpy (eV/cell)     -213.7662

siesta: Stress tensor (static) (eV/Ang**3):
        -0.044984    0.043066    0.066721
         0.043066   -0.038892    0.023231
         0.066721    0.023231   -0.032442

siesta: Pressure (static):         62.12150938  kBar

siesta: Stress tensor (total) (eV/Ang**3):
        -0.045295    0.043272    0.066459
         0.043272   -0.039029    0.023404
         0.066459    0.023404   -0.032661

siesta: Pressure (total):         62.47758461  kBar
 Anneal: Kinetic Energy=  0.173729921103348223E-02
 Anneal: Velocity scale factor =  1.04462341836438855
 Anneal: Cell scale factor =  1.00210884451319715

siesta: Temp_ion =     199.559 K

* Maximum dynamic memory allocated =     5 MB

siesta:                 ==============================
                            Begin MD step =     15
                        ==============================

superc: Internal auxiliary supercell:     5 x     5 x     5  =     125
superc: Number of atoms, orbitals, and projectors:    250  1000  2250

InitMesh: MESH =    20 x    20 x    20 =        8000
InitMesh: Mesh cutoff (required, used) =   100.000   111.780 Ry

siesta: Eharris(eV) =    -213.852954


siesta: Eharris(eV) =    -213.852954


siesta: Atomic forces (eV/Ang):
----------------------------------------
 Tot    0.000000    0.000000   -0.000000
----------------------------------------
 Max    1.002351
 Res    0.697151    sqrt( Sum f_i^2 / 3N )
----------------------------------------
 Max    1.002351    constrained

Stress-tensor-Voigt (kbar):      -72.56      -62.84      -50.34       67.80       34.65      104.33
Target enthalpy (eV/cell)     -213.7751

siesta: Stress tensor (static) (eV/Ang**3):
        -0.044988    0.042152    0.065390
         0.042152   -0.039130    0.021471
         0.065390    0.021471   -0.031173

siesta: Pressure (static):         61.57261967  kBar

siesta: Stress tensor (total) (eV/Ang**3):
        -0.045289    0.042320    0.065117
         0.042320   -0.039223    0.021624
         0.065117    0.021624   -0.031422

siesta: Pressure (total):         61.91600130  kBar
 Anneal: Kinetic Energy=  0.168029685347720272E-02
 Anneal: Velocity scale factor =  1.04675221731873092
 Anneal: Cell scale factor =  1.00203186454635595

siesta: Temp_ion =     193.799 K

* Maximum dynamic memory allocated =     5 MB

siesta:                 ==============================
                            Begin MD step =     16
                        ==============================

superc: Internal auxiliary supercell:     5 x     5 x     5  =     125
superc: Number of atoms, orbitals, and projectors:    250  1000  2250

InitMesh: MESH =    20 x    20 x    20 =        8000
InitMesh: Mesh cutoff (required, used) =   100.000   111.584 Ry

siesta: Eharris(eV) =    -213.863324


siesta: Eharris(eV) =    -213.863324


siesta: Atomic forces (eV/Ang):
----------------------------------------
 Tot   -0.000000    0.000000   -0.000000
----------------------------------------
 Max    0.990588
 Res    0.709430    sqrt( Sum f_i^2 / 3N )
----------------------------------------
 Max    0.990588    constrained

Stress-tensor-Voigt (kbar):      -71.90      -62.79      -47.95       65.15       31.36      102.49
Target enthalpy (eV/cell)     -213.7855

siesta: Stress tensor (static) (eV/Ang**3):
        -0.044590    0.040534    0.064255
         0.040534   -0.039133    0.019449
         0.064255    0.019449   -0.029645

siesta: Pressure (static):         60.54550596  kBar

siesta: Stress tensor (total) (eV/Ang**3):
        -0.044876    0.040661    0.063971
         0.040661   -0.039189    0.019575
         0.063971    0.019575   -0.029926

siesta: Pressure (total):         60.87882594  kBar
 Anneal: Kinetic Energy=  0.164399481555244737E-02
 Anneal: Velocity scale factor =  1.04818245618120387
 Anneal: Cell scale factor =  1.00193863098300806

siesta: Temp_ion =     190.130 K

* Maximum dynamic memory allocated =     5 MB

siesta:                 ==============================
                            Begin MD step =     17
                        ==============================

superc: Internal auxiliary supercell:     5 x     5 x     5  =     125
superc: Number of atoms, orbitals, and projectors:    250  1000  2250

InitMesh: MESH =    20 x    20 x    20 =        8000
InitMesh: Mesh cutoff (required, used) =   100.000   111.376 Ry

siesta: Eharris(eV) =    -213.874929


siesta: Eharris(eV) =    -213.874929


siesta: Atomic forces (eV/Ang):
----------------------------------------
 Tot   -0.000001    0.000000    0.000001
----------------------------------------
 Max    0.970924
 Res    0.719259    sqrt( Sum f_i^2 / 3N )
----------------------------------------
 Max    0.970924    constrained

Stress-tensor-Voigt (kbar):      -71.87      -62.29      -45.94       63.42       28.22      100.32
Target enthalpy (eV/cell)     -213.7971

siesta: Stress tensor (static) (eV/Ang**3):
        -0.044588    0.039496    0.062906
         0.039496   -0.038850    0.017523
         0.062906    0.017523   -0.028360

siesta: Pressure (static):         59.70705716  kBar

siesta: Stress tensor (total) (eV/Ang**3):
        -0.044857    0.039581    0.062614
         0.039581   -0.038876    0.017615
         0.062614    0.017615   -0.028676

siesta: Pressure (total):         60.03388739  kBar
 Anneal: Kinetic Energy=  0.163062007171876694E-02
 Anneal: Velocity scale factor =  1.04872494089429757
 Anneal: Cell scale factor =  1.00186112412015849

siesta: Temp_ion =     188.779 K

* Maximum dynamic memory allocated =     5 MB

siesta:                 ==============================
                            Begin MD step =     18
                        ==============================

superc: Internal auxiliary supercell:     5 x     5 x     5  =     125
superc: Number of atoms, orbitals, and projectors:    250  1000  2250

InitMesh: MESH =    20 x    20 x    20 =        8000
InitMesh: Mesh cutoff (required, used) =   100.000   111.158 Ry

siesta: Eharris(eV) =    -213.887675


siesta: Eharris(eV) =    -213.887675


siesta: Atomic forces (eV/Ang):
----------------------------------------
 Tot   -0.000000   -0.000000   -0.000000
----------------------------------------
 Max    0.935267
 Res    0.724424    sqrt( Sum f_i^2 / 3N )
----------------------------------------
 Max    0.935267    constrained

Stress-tensor-Voigt (kbar):      -70.46      -60.60      -42.40       60.73       25.28       96.45
Target enthalpy (eV/cell)     -213.8098

siesta: Stress tensor (static) (eV/Ang**3):
        -0.043731    0.037865    0.060496
         0.037865   -0.037817    0.015730
         0.060496    0.015730   -0.026110

siesta: Pressure (static):         57.49603335  kBar

siesta: Stress tensor (total) (eV/Ang**3):
        -0.043979    0.037907    0.060200
         0.037907   -0.037824    0.015780
         0.060200    0.015780   -0.026462

siesta: Pressure (total):         57.82035637  kBar
 Anneal: Kinetic Energy=  0.164023222511734288E-02
 Anneal: Velocity scale factor =  1.04833420221785945
 Anneal: Cell scale factor =  1.00172178140875423

siesta: Temp_ion =     189.750 K

* Maximum dynamic memory allocated =     5 MB

siesta:                 ==============================
                            Begin MD step =     19
                        ==============================

superc: Internal auxiliary supercell:     5 x     5 x     5  =     125
superc: Number of atoms, orbitals, and projectors:    250  1000  2250

InitMesh: MESH =    20 x    20 x    20 =        8000
InitMesh: Mesh cutoff (required, used) =   100.000   110.937 Ry

siesta: Eharris(eV) =    -213.900938


siesta: Eharris(eV) =    -213.900938


siesta: Atomic forces (eV/Ang):
----------------------------------------
 Tot    0.000001    0.000000    0.000000
----------------------------------------
 Max    0.889166
 Res    0.728630    sqrt( Sum f_i^2 / 3N )
----------------------------------------
 Max    0.889166    constrained

Stress-tensor-Voigt (kbar):      -70.09      -59.99      -39.55       58.10       22.20       92.01
Target enthalpy (eV/cell)     -213.8232

siesta: Stress tensor (static) (eV/Ang**3):
        -0.043523    0.036261    0.057720
         0.036261   -0.037442    0.013856
         0.057720    0.013856   -0.024299

siesta: Pressure (static):         56.21742960  kBar

siesta: Stress tensor (total) (eV/Ang**3):
        -0.043745    0.036261    0.057427
         0.036261   -0.037442    0.013856
         0.057427    0.013856   -0.024686

siesta: Pressure (total):         56.54324016  kBar
 Anneal: Kinetic Energy=  0.167137626817168454E-02
 Anneal: Velocity scale factor =  1.04709809455904779
 Anneal: Cell scale factor =  1.00161005491089261

siesta: Temp_ion =     192.897 K

* Maximum dynamic memory allocated =     5 MB

siesta:                 ==============================
                            Begin MD step =     20
                        ==============================

superc: Internal auxiliary supercell:     5 x     5 x     5  =     125
superc: Number of atoms, orbitals, and projectors:    250  1000  2250

InitMesh: MESH =    20 x    20 x    20 =        8000
InitMesh: Mesh cutoff (required, used) =   100.000   110.709 Ry

siesta: Eharris(eV) =    -213.915013


siesta: Eharris(eV) =    -213.915013


siesta: Atomic forces (eV/Ang):
----------------------------------------
 Tot    0.000001   -0.000000    0.000001
----------------------------------------
 Max    0.828750
 Res    0.723743    sqrt( Sum f_i^2 / 3N )
----------------------------------------
 Max    0.828750    constrained

Stress-tensor-Voigt (kbar):      -68.48      -58.19      -35.96       55.90       20.75       87.21
Target enthalpy (eV/cell)     -213.8374

siesta: Stress tensor (static) (eV/Ang**3):
        -0.042547    0.034928    0.054716
         0.034928   -0.036313    0.013010
         0.054716    0.013010   -0.022022

siesta: Pressure (static):         53.87759521  kBar

siesta: Stress tensor (total) (eV/Ang**3):
        -0.042739    0.034890    0.054432
         0.034890   -0.036321    0.012953
         0.054432    0.012953   -0.022442

siesta: Pressure (total):         54.20862086  kBar
 Anneal: Kinetic Energy=  0.172437161567954547E-02
 Anneal: Velocity scale factor =  1.04509424297916143
 Anneal: Cell scale factor =  1.00146774762740942

siesta: Temp_ion =     198.252 K

* Maximum dynamic memory allocated =     5 MB

siesta:                 ==============================
                            Begin MD step =     21
                        ==============================

superc: Internal auxiliary supercell:     5 x     5 x     5  =     125
superc: Number of atoms, orbitals, and projectors:    250  1000  2250

InitMesh: MESH =    20 x    20 x    20 =        8000
InitMesh: Mesh cutoff (required, used) =   100.000   110.486 Ry

siesta: Eharris(eV) =    -213.929222


siesta: Eharris(eV) =    -213.929222


siesta: Atomic forces (eV/Ang):
----------------------------------------
 Tot    0.000001    0.000001   -0.000000
----------------------------------------
 Max    0.853051
 Res    0.721106    sqrt( Sum f_i^2 / 3N )
----------------------------------------
 Max    0.853051    constrained

Stress-tensor-Voigt (kbar):      -66.78      -57.20      -33.64       52.72       18.39       82.88
Target enthalpy (eV/cell)     -213.8517

siesta: Stress tensor (static) (eV/Ang**3):
        -0.041519    0.032978    0.051993
         0.032978   -0.035666    0.011597
         0.051993    0.011597   -0.020549

siesta: Pressure (static):         52.19648295  kBar

siesta: Stress tensor (total) (eV/Ang**3):
        -0.041678    0.032907    0.051727
         0.032907   -0.035698    0.011477
         0.051727    0.011477   -0.020995

siesta: Pressure (total):         52.53649770  kBar
 Anneal: Kinetic Energy=  0.179686726502694435E-02
 Anneal: Velocity scale factor =  1.04253892232551304
 Anneal: Cell scale factor =  1.00137566997227112

siesta: Temp_ion =     205.578 K

* Maximum dynamic memory allocated =     5 MB

siesta:                 ==============================
                            Begin MD step =     22
                        ==============================

superc: Internal auxiliary supercell:     5 x     5 x     5  =     125
superc: Number of atoms, orbitals, and projectors:    250  1000  2250

InitMesh: MESH =    20 x    20 x    20 =        8000
InitMesh: Mesh cutoff (required, used) =   100.000   110.261 Ry

siesta: Eharris(eV) =    -213.943775


siesta: Eharris(eV) =    -213.943775


siesta: Atomic forces (eV/Ang):
----------------------------------------
 Tot   -0.000001    0.000000    0.000001
----------------------------------------
 Max    0.867566
 Res    0.717826    sqrt( Sum f_i^2 / 3N )
----------------------------------------
 Max    0.867566    constrained

Stress-tensor-Voigt (kbar):      -64.72      -55.86      -30.66       49.24       16.48       77.51
Target enthalpy (eV/cell)     -213.8665

siesta: Stress tensor (static) (eV/Ang**3):
        -0.040272    0.030827    0.048614
         0.030827   -0.034788    0.010469
         0.048614    0.010469   -0.018673

siesta: Pressure (static):         50.05960868  kBar

siesta: Stress tensor (total) (eV/Ang**3):
        -0.040396    0.030732    0.048375
         0.030732   -0.034862    0.010284
         0.048375    0.010284   -0.019135

siesta: Pressure (total):         50.41197300  kBar
 Anneal: Kinetic Energy=  0.188199352038301011E-02
 Anneal: Velocity scale factor =  1.03978268814914854
 Anneal: Cell scale factor =  1.00125614970588339

siesta: Temp_ion =     214.181 K

* Maximum dynamic memory allocated =     5 MB

siesta:                 ==============================
                            Begin MD step =     23
                        ==============================

superc: Internal auxiliary supercell:     5 x     5 x     5  =     125
superc: Number of atoms, orbitals, and projectors:    250  1000  2250

InitMesh: MESH =    20 x    20 x    20 =        8000
InitMesh: Mesh cutoff (required, used) =   100.000   110.040 Ry

siesta: Eharris(eV) =    -213.958269


siesta: Eharris(eV) =    -213.958269


siesta: Atomic forces (eV/Ang):
----------------------------------------
 Tot    0.000001    0.000000   -0.000000
----------------------------------------
 Max    0.878026
 Res    0.716236    sqrt( Sum f_i^2 / 3N )
----------------------------------------
 Max    0.878026    constrained

Stress-tensor-Voigt (kbar):      -62.09      -54.64      -27.25       46.19       15.49       71.89
Target enthalpy (eV/cell)     -213.8811

siesta: Stress tensor (static) (eV/Ang**3):
        -0.038662    0.028935    0.045072
         0.028935   -0.033969    0.009919
         0.045072    0.009919   -0.016539

siesta: Pressure (static):         47.62262998  kBar

siesta: Stress tensor (total) (eV/Ang**3):
        -0.038750    0.028827    0.044869
         0.028827   -0.034102    0.009671
         0.044869    0.009671   -0.017005

siesta: Pressure (total):         47.98947873  kBar
 Anneal: Kinetic Energy=  0.197469377397922492E-02
 Anneal: Velocity scale factor =  1.03704428593878117
 Anneal: Cell scale factor =  1.00111828928493485

siesta: Temp_ion =     223.548 K

* Maximum dynamic memory allocated =     5 MB

siesta:                 ==============================
                            Begin MD step =     24
                        ==============================

superc: Internal auxiliary supercell:     5 x     5 x     5  =     125
superc: Number of atoms, orbitals, and projectors:    250  1000  2250

InitMesh: MESH =    20 x    20 x    20 =        8000
InitMesh: Mesh cutoff (required, used) =   100.000   109.829 Ry

siesta: Eharris(eV) =    -213.972354


siesta: Eharris(eV) =    -213.972354


siesta: Atomic forces (eV/Ang):
----------------------------------------
 Tot   -0.000001    0.000000   -0.000001
----------------------------------------
 Max    0.868948
 Res    0.711389    sqrt( Sum f_i^2 / 3N )
----------------------------------------
 Max    0.868948    constrained

Stress-tensor-Voigt (kbar):      -59.38      -53.28      -23.85       42.31       16.48       65.55
Target enthalpy (eV/cell)     -213.8954

siesta: Stress tensor (static) (eV/Ang**3):
        -0.037004    0.026512    0.041073
         0.026512   -0.033047    0.010590
         0.041073    0.010590   -0.014432

siesta: Pressure (static):         45.11957255  kBar

siesta: Stress tensor (total) (eV/Ang**3):
        -0.037060    0.026405    0.040913
         0.026405   -0.033252    0.010284
         0.040913    0.010284   -0.014888

siesta: Pressure (total):         45.50215961  kBar
 Anneal: Kinetic Energy=  0.207049503828847471E-02
 Anneal: Velocity scale factor =  1.03446532450229434
 Anneal: Cell scale factor =  1.00098021972472750

siesta: Temp_ion =     233.229 K

* Maximum dynamic memory allocated =     5 MB

siesta:                 ==============================
                            Begin MD step =     25
                        ==============================

superc: Internal auxiliary supercell:     5 x     5 x     5  =     125
superc: Number of atoms, orbitals, and projectors:    250  1000  2250

InitMesh: MESH =    20 x    20 x    20 =        8000
InitMesh: Mesh cutoff (required, used) =   100.000   109.630 Ry

siesta: Eharris(eV) =    -213.985842


siesta: Eharris(eV) =    -213.985842


siesta: Atomic forces (eV/Ang):
----------------------------------------
 Tot   -0.000001   -0.000000    0.000001
----------------------------------------
 Max    0.869016
 Res    0.716796    sqrt( Sum f_i^2 / 3N )
----------------------------------------
 Max    0.869016    constrained

Stress-tensor-Voigt (kbar):      -59.29      -51.98      -22.26       38.38       16.19       61.42
Target enthalpy (eV/cell)     -213.9091

siesta: Stress tensor (static) (eV/Ang**3):
        -0.036975    0.024047    0.038449
         0.024047   -0.032159    0.010454
         0.038449    0.010454   -0.013463

siesta: Pressure (static):         44.11236248  kBar

siesta: Stress tensor (total) (eV/Ang**3):
        -0.037004    0.023956    0.038338
         0.023956   -0.032446    0.010102
         0.038338    0.010102   -0.013894

siesta: Pressure (total):         44.51114880  kBar
 Anneal: Kinetic Energy=  0.216432824676025858E-02
 Anneal: Velocity scale factor =  1.03215521261396059
 Anneal: Cell scale factor =  1.00091321729279703

siesta: Temp_ion =     242.711 K

* Maximum dynamic memory allocated =     5 MB

siesta:                 ==============================
                            Begin MD step =     26
                        ==============================

superc: Internal auxiliary supercell:     5 x     5 x     5  =     125
superc: Number of atoms, orbitals, and projectors:    250  1000  2250

InitMesh: MESH =    20 x    20 x    20 =        8000
InitMesh: Mesh cutoff (required, used) =   100.000   109.422 Ry

siesta: Eharris(eV) =    -213.999377


siesta: Eharris(eV) =    -213.999377


siesta: Atomic forces (eV/Ang):
----------------------------------------
 Tot   -0.000000    0.000000   -0.000000
----------------------------------------
 Max    0.878374
 Res    0.725541    sqrt( Sum f_i^2 / 3N )
----------------------------------------
 Max    0.878374    constrained

Stress-tensor-Voigt (kbar):      -57.85      -51.47      -20.36       35.21       15.96       55.90
Target enthalpy (eV/cell)     -213.9228

siesta: Stress tensor (static) (eV/Ang**3):
        -0.036095    0.022039    0.034954
         0.022039   -0.031748    0.010343
         0.034954    0.010343   -0.012314

siesta: Pressure (static):         42.80914152  kBar

siesta: Stress tensor (total) (eV/Ang**3):
        -0.036105    0.021978    0.034893
         0.021978   -0.032122    0.009960
         0.034893    0.009960   -0.012707

siesta: Pressure (total):         43.22371596  kBar
 Anneal: Kinetic Energy=  0.225520608813907508E-02
 Anneal: Velocity scale factor =  1.03009675739363371
 Anneal: Cell scale factor =  1.00083314718472072

siesta: Temp_ion =     251.895 K

* Maximum dynamic memory allocated =     5 MB

siesta:                 ==============================
                            Begin MD step =     27
                        ==============================

superc: Internal auxiliary supercell:     5 x     5 x     5  =     125
superc: Number of atoms, orbitals, and projectors:    250  1000  2250

InitMesh: MESH =    20 x    20 x    20 =        8000
InitMesh: Mesh cutoff (required, used) =   100.000   109.218 Ry

siesta: Eharris(eV) =    -214.012821


siesta: Eharris(eV) =    -214.012821


siesta: Atomic forces (eV/Ang):
----------------------------------------
 Tot    0.000000   -0.000000    0.000000
----------------------------------------
 Max    0.943193
 Res    0.738765    sqrt( Sum f_i^2 / 3N )
----------------------------------------
 Max    0.943193    constrained

Stress-tensor-Voigt (kbar):      -56.96      -50.50      -18.72       32.29       16.32       51.06
Target enthalpy (eV/cell)     -213.9364

siesta: Stress tensor (static) (eV/Ang**3):
        -0.035552    0.020166    0.031879
         0.020166   -0.031058    0.010585
         0.031879    0.010585   -0.011341

siesta: Pressure (static):         41.63110665  kBar

siesta: Stress tensor (total) (eV/Ang**3):
        -0.035553    0.020151    0.031866
         0.020151   -0.031520    0.010187
         0.031866    0.010187   -0.011683

siesta: Pressure (total):         42.06087690  kBar
 Anneal: Kinetic Energy=  0.234232849649373704E-02
 Anneal: Velocity scale factor =  1.02826988753573034
 Anneal: Cell scale factor =  1.00076324311678189

siesta: Temp_ion =     260.699 K

* Maximum dynamic memory allocated =     5 MB

siesta:                 ==============================
                            Begin MD step =     28
                        ==============================

superc: Internal auxiliary supercell:     5 x     5 x     5  =     125
superc: Number of atoms, orbitals, and projectors:    250  1000  2250

InitMesh: MESH =    20 x    20 x    20 =        8000
InitMesh: Mesh cutoff (required, used) =   100.000   109.017 Ry

siesta: Eharris(eV) =    -214.026092


siesta: Eharris(eV) =    -214.026092


siesta: Atomic forces (eV/Ang):
----------------------------------------
 Tot    0.000000   -0.000000   -0.000000
----------------------------------------
 Max    1.000672
 Res    0.753706    sqrt( Sum f_i^2 / 3N )
----------------------------------------
 Max    1.000672    constrained

Stress-tensor-Voigt (kbar):      -56.36      -49.85      -18.12       30.19       17.07       46.15
Target enthalpy (eV/cell)     -213.9497

siesta: Stress tensor (static) (eV/Ang**3):
        -0.035172    0.018799    0.028776
         0.018799   -0.030572    0.011045
         0.028776    0.011045   -0.011027

siesta: Pressure (static):         41.00054992  kBar

siesta: Stress tensor (total) (eV/Ang**3):
        -0.035175    0.018841    0.028806
         0.018841   -0.031117    0.010652
         0.028806    0.010652   -0.011311

siesta: Pressure (total):         41.44476416  kBar
 Anneal: Kinetic Energy=  0.242722177614219633E-02
 Anneal: Velocity scale factor =  1.02661311280627165
 Anneal: Cell scale factor =  1.00073498298536845

siesta: Temp_ion =     269.277 K

* Maximum dynamic memory allocated =     5 MB

siesta:                 ==============================
                            Begin MD step =     29
                        ==============================

superc: Internal auxiliary supercell:     5 x     5 x     5  =     125
superc: Number of atoms, orbitals, and projectors:    250  1000  2250

InitMesh: MESH =    20 x    20 x    20 =        8000
InitMesh: Mesh cutoff (required, used) =   100.000   108.819 Ry

siesta: Eharris(eV) =    -214.039407


siesta: Eharris(eV) =    -214.039407


siesta: Atomic forces (eV/Ang):
----------------------------------------
 Tot    0.000000   -0.000001    0.000000
----------------------------------------
 Max    1.046955
 Res    0.770742    sqrt( Sum f_i^2 / 3N )
----------------------------------------
 Max    1.046955    constrained

Stress-tensor-Voigt (kbar):      -55.66      -49.71      -17.88       28.06       17.65       40.15
Target enthalpy (eV/cell)     -213.9630

siesta: Stress tensor (static) (eV/Ang**3):
        -0.034718    0.017406    0.024995
         0.017406   -0.030408    0.011384
         0.024995    0.011384   -0.010938

siesta: Pressure (static):         40.62306237  kBar

siesta: Stress tensor (total) (eV/Ang**3):
        -0.034737    0.017515    0.025060
         0.017515   -0.031026    0.011015
         0.025060    0.011015   -0.011158

siesta: Pressure (total):         41.08123603  kBar
 Anneal: Kinetic Energy=  0.251358952675505547E-02
 Anneal: Velocity scale factor =  1.02503993292907292
 Anneal: Cell scale factor =  1.00072110982088947

siesta: Temp_ion =     278.005 K

* Maximum dynamic memory allocated =     5 MB

siesta:                 ==============================
                            Begin MD step =     30
                        ==============================

superc: Internal auxiliary supercell:     5 x     5 x     5  =     125
superc: Number of atoms, orbitals, and projectors:    250  1000  2250

InitMesh: MESH =    20 x    20 x    20 =        8000
InitMesh: Mesh cutoff (required, used) =   100.000   108.625 Ry

siesta: Eharris(eV) =    -214.052951


siesta: Eharris(eV) =    -214.052951


siesta: Atomic forces (eV/Ang):
----------------------------------------
 Tot   -0.000000    0.000000    0.000000
----------------------------------------
 Max    1.089591
 Res    0.788148    sqrt( Sum f_i^2 / 3N )
----------------------------------------
 Max    1.089591    constrained

Stress-tensor-Voigt (kbar):      -53.72      -48.10      -16.44       25.44       19.77       34.62
Target enthalpy (eV/cell)     -213.9765

siesta: Stress tensor (static) (eV/Ang**3):
        -0.033482    0.015696    0.021517
         0.015696   -0.029341    0.012664
         0.021517    0.012664   -0.010105

siesta: Pressure (static):         38.94856647  kBar

siesta: Stress tensor (total) (eV/Ang**3):
        -0.033532    0.015880    0.021605
         0.015880   -0.030019    0.012338
         0.021605    0.012338   -0.010262

siesta: Pressure (total):         39.42085236  kBar
 Anneal: Kinetic Energy=  0.260654108044145686E-02
 Anneal: Velocity scale factor =  1.02346088216861553
 Anneal: Cell scale factor =  1.00066023803582227

siesta: Temp_ion =     287.398 K

* Maximum dynamic memory allocated =     5 MB

siesta:                 ==============================
                            Begin MD step =     31
                        ==============================

superc: Internal auxiliary supercell:     5 x     5 x     5  =     125
superc: Number of atoms, orbitals, and projectors:    250  1000  2250

InitMesh: MESH =    20 x    20 x    20 =        8000
InitMesh: Mesh cutoff (required, used) =   100.000   108.443 Ry

siesta: Eharris(eV) =    -214.066101


siesta: Eharris(eV) =    -214.066101


siesta: Atomic forces (eV/Ang):
----------------------------------------
 Tot   -0.000000    0.000000   -0.000001
----------------------------------------
 Max    1.122241
 Res    0.804646    sqrt( Sum f_i^2 / 3N )
----------------------------------------
 Max    1.122241    constrained

Stress-tensor-Voigt (kbar):      -52.22      -45.78      -15.75       23.12       22.08       29.73
Target enthalpy (eV/cell)     -213.9895

siesta: Stress tensor (static) (eV/Ang**3):
        -0.032496    0.014166    0.018456
         0.014166   -0.027852    0.014047
         0.018456    0.014047   -0.009732

siesta: Pressure (static):         37.42725381  kBar

siesta: Stress tensor (total) (eV/Ang**3):
        -0.032591    0.014428    0.018553
         0.014428   -0.028571    0.013780
         0.018553    0.013780   -0.009830

siesta: Pressure (total):         37.91467323  kBar
 Anneal: Kinetic Energy=  0.271079132475206914E-02
 Anneal: Velocity scale factor =  1.02181613634311552
 Anneal: Cell scale factor =  1.00063002231028220

siesta: Temp_ion =     297.933 K

* Maximum dynamic memory allocated =     5 MB

siesta:                 ==============================
                            Begin MD step =     32
                        ==============================

superc: Internal auxiliary supercell:     5 x     5 x     5  =     125
superc: Number of atoms, orbitals, and projectors:    250  1000  2250

InitMesh: MESH =    20 x    20 x    20 =        8000
InitMesh: Mesh cutoff (required, used) =   100.000   108.267 Ry

siesta: Eharris(eV) =    -214.078986


siesta: Eharris(eV) =    -214.078986


siesta: Atomic forces (eV/Ang):
----------------------------------------
 Tot    0.000000    0.000000   -0.000001
----------------------------------------
 Max    1.136422
 Res    0.816744    sqrt( Sum f_i^2 / 3N )
----------------------------------------
 Max    1.136422    constrained

Stress-tensor-Voigt (kbar):      -50.65      -43.98      -15.69       21.27       24.49       24.87
Target enthalpy (eV/cell)     -214.0021

siesta: Stress tensor (static) (eV/Ang**3):
        -0.031461    0.012936    0.015432
         0.012936   -0.026713    0.015478
         0.015432    0.015478   -0.009740

siesta: Pressure (static):         36.27052469  kBar

siesta: Stress tensor (total) (eV/Ang**3):
        -0.031616    0.013274    0.015520
         0.013274   -0.027452    0.015285
         0.015520    0.015285   -0.009790

siesta: Pressure (total):         36.77493428  kBar
 Anneal: Kinetic Energy=  0.283208220550420229E-02
 Anneal: Velocity scale factor =  1.02005199642486488
 Anneal: Cell scale factor =  1.00062614598924937

siesta: Temp_ion =     310.190 K

* Maximum dynamic memory allocated =     5 MB

siesta:                 ==============================
                            Begin MD step =     33
                        ==============================

superc: Internal auxiliary supercell:     5 x     5 x     5  =     125
superc: Number of atoms, orbitals, and projectors:    250  1000  2250

InitMesh: MESH =    20 x    20 x    20 =        8000
InitMesh: Mesh cutoff (required, used) =   100.000   108.101 Ry

siesta: Eharris(eV) =    -214.091889


siesta: Eharris(eV) =    -214.091889


siesta: Atomic forces (eV/Ang):
----------------------------------------
 Tot   -0.000000   -0.000001    0.000000
----------------------------------------
 Max    1.139220
 Res    0.826150    sqrt( Sum f_i^2 / 3N )
----------------------------------------
 Max    1.139220    constrained

Stress-tensor-Voigt (kbar):      -48.70      -41.79      -15.44       20.70       26.00       21.19
Target enthalpy (eV/cell)     -214.0147

siesta: Stress tensor (static) (eV/Ang**3):
        -0.030166    0.012511    0.013166
         0.012511   -0.025347    0.016334
         0.013166    0.016334   -0.009621

siesta: Pressure (static):         34.78562933  kBar

siesta: Stress tensor (total) (eV/Ang**3):
        -0.030393    0.012921    0.013226
         0.012921   -0.026085    0.016225
         0.013226    0.016225   -0.009637

siesta: Pressure (total):         35.30990187  kBar
 Anneal: Kinetic Energy=  0.297794502122405167E-02
 Anneal: Velocity scale factor =  1.01811728444243332
 Anneal: Cell scale factor =  1.00061649582682333

siesta: Temp_ion =     324.929 K

* Maximum dynamic memory allocated =     5 MB

siesta:                 ==============================
                            Begin MD step =     34
                        ==============================

superc: Internal auxiliary supercell:     5 x     5 x     5  =     125
superc: Number of atoms, orbitals, and projectors:    250  1000  2250

InitMesh: MESH =    20 x    20 x    20 =        8000
InitMesh: Mesh cutoff (required, used) =   100.000   107.946 Ry

siesta: Eharris(eV) =    -214.104682


siesta: Eharris(eV) =    -214.104682


siesta: Atomic forces (eV/Ang):
----------------------------------------
 Tot    0.000000   -0.000000   -0.000000
----------------------------------------
 Max    1.127427
 Res    0.828434    sqrt( Sum f_i^2 / 3N )
----------------------------------------
 Max    1.127427    constrained

Stress-tensor-Voigt (kbar):      -47.34      -40.07      -16.00       20.47       28.86       17.09
Target enthalpy (eV/cell)     -214.0271

siesta: Stress tensor (static) (eV/Ang**3):
        -0.029237    0.012308    0.010650
         0.012308   -0.024293    0.018034
         0.010650    0.018034   -0.009986

siesta: Pressure (static):         33.92134161  kBar

siesta: Stress tensor (total) (eV/Ang**3):
        -0.029548    0.012779    0.010664
         0.012779   -0.025008    0.018013
         0.010664    0.018013   -0.009986

siesta: Pressure (total):         34.46961957  kBar
 Anneal: Kinetic Energy=  0.315125756208256081E-02
 Anneal: Velocity scale factor =  1.01604724869174223
 Anneal: Cell scale factor =  1.00064056113521027

siesta: Temp_ion =     342.443 K

* Maximum dynamic memory allocated =     5 MB

siesta:                 ==============================
                            Begin MD step =     35
                        ==============================

superc: Internal auxiliary supercell:     5 x     5 x     5  =     125
superc: Number of atoms, orbitals, and projectors:    250  1000  2250

InitMesh: MESH =    20 x    20 x    20 =        8000
InitMesh: Mesh cutoff (required, used) =   100.000   107.802 Ry

siesta: Eharris(eV) =    -214.117604


siesta: Eharris(eV) =    -214.117604


siesta: Atomic forces (eV/Ang):
----------------------------------------
 Tot    0.000001    0.000000    0.000000
----------------------------------------
 Max    1.108681
 Res    0.829669    sqrt( Sum f_i^2 / 3N )
----------------------------------------
 Max    1.108681    constrained

Stress-tensor-Voigt (kbar):      -45.34      -38.34      -16.20       19.98       32.76       11.97
Target enthalpy (eV/cell)     -214.0396

siesta: Stress tensor (static) (eV/Ang**3):
        -0.027895    0.011950    0.007523
         0.011950   -0.023261    0.020380
         0.007523    0.020380   -0.010107

siesta: Pressure (static):         32.71876343  kBar

siesta: Stress tensor (total) (eV/Ang**3):
        -0.028298    0.012470    0.007471
         0.012470   -0.023932    0.020446
         0.007471    0.020446   -0.010114

siesta: Pressure (total):         33.29569741  kBar
 Anneal: Kinetic Energy=  0.334759221836185197E-02
 Anneal: Velocity scale factor =  1.01395690306191821
 Anneal: Cell scale factor =  1.00065203133372349

siesta: Temp_ion =     362.283 K

* Maximum dynamic memory allocated =     5 MB

siesta:                 ==============================
                            Begin MD step =     36
                        ==============================

superc: Internal auxiliary supercell:     5 x     5 x     5  =     125
superc: Number of atoms, orbitals, and projectors:    250  1000  2250

InitMesh: MESH =    20 x    20 x    20 =        8000
InitMesh: Mesh cutoff (required, used) =   100.000   107.675 Ry

siesta: Eharris(eV) =    -214.130533


siesta: Eharris(eV) =    -214.130533


siesta: Atomic forces (eV/Ang):
----------------------------------------
 Tot    0.000001   -0.000001    0.000000
----------------------------------------
 Max    1.078406
 Res    0.825851    sqrt( Sum f_i^2 / 3N )
----------------------------------------
 Max    1.078406    constrained

Stress-tensor-Voigt (kbar):      -43.62      -36.97      -16.86       20.33       37.16        7.96
Target enthalpy (eV/cell)     -214.0520

siesta: Stress tensor (static) (eV/Ang**3):
        -0.026730    0.012138    0.005099
         0.012138   -0.022466    0.023046
         0.005099    0.023046   -0.010490

siesta: Pressure (static):         31.87624983  kBar

siesta: Stress tensor (total) (eV/Ang**3):
        -0.027227    0.012688    0.004967
         0.012688   -0.023075    0.023192
         0.004967    0.023192   -0.010525

siesta: Pressure (total):         32.48575413  kBar
 Anneal: Kinetic Energy=  0.356421006542111249E-02
 Anneal: Velocity scale factor =  1.01191365445557535
 Anneal: Cell scale factor =  1.00068316584585326

siesta: Temp_ion =     384.173 K

* Maximum dynamic memory allocated =     5 MB

siesta:                 ==============================
                            Begin MD step =     37
                        ==============================

superc: Internal auxiliary supercell:     5 x     5 x     5  =     125
superc: Number of atoms, orbitals, and projectors:    250  1000  2250

InitMesh: MESH =    20 x    20 x    20 =        8000
InitMesh: Mesh cutoff (required, used) =   100.000   107.540 Ry

siesta: Eharris(eV) =    -214.143540


siesta: Eharris(eV) =    -214.143540


siesta: Atomic forces (eV/Ang):
----------------------------------------
 Tot   -0.000000   -0.000000   -0.000001
----------------------------------------
 Max    1.028645
 Res    0.814239    sqrt( Sum f_i^2 / 3N )
----------------------------------------
 Max    1.028645    constrained

Stress-tensor-Voigt (kbar):      -41.18      -34.96      -16.87       20.89       40.87        4.94
Target enthalpy (eV/cell)     -214.0644

siesta: Stress tensor (static) (eV/Ang**3):
        -0.025111    0.012481    0.003307
         0.012481   -0.021288    0.025291
         0.003307    0.025291   -0.010440

siesta: Pressure (static):         30.35590564  kBar

siesta: Stress tensor (total) (eV/Ang**3):
        -0.025702    0.013041    0.003080
         0.013041   -0.021819    0.025506
         0.003080    0.025506   -0.010527

siesta: Pressure (total):         31.00139712  kBar
 Anneal: Kinetic Energy=  0.379795972556570566E-02
 Anneal: Velocity scale factor =  1.00996642801661074
 Anneal: Cell scale factor =  1.00068929043906008

siesta: Temp_ion =     407.794 K

* Maximum dynamic memory allocated =     5 MB

siesta:                 ==============================
                            Begin MD step =     38
                        ==============================

superc: Internal auxiliary supercell:     5 x     5 x     5  =     125
superc: Number of atoms, orbitals, and projectors:    250  1000  2250

InitMesh: MESH =    20 x    20 x    20 =        8000
InitMesh: Mesh cutoff (required, used) =   100.000   107.426 Ry

siesta: Eharris(eV) =    -214.156265


siesta: Eharris(eV) =    -214.156265


siesta: Atomic forces (eV/Ang):
----------------------------------------
 Tot   -0.000000    0.000000    0.000000
----------------------------------------
 Max    0.957341
 Res    0.793279    sqrt( Sum f_i^2 / 3N )
----------------------------------------
 Max    0.957341    constrained

Stress-tensor-Voigt (kbar):      -39.31      -33.87      -18.49       22.91       45.96        2.40
Target enthalpy (eV/cell)     -214.0765

siesta: Stress tensor (static) (eV/Ang**3):
        -0.023856    0.013752    0.001830
         0.013752   -0.020694    0.028423
         0.001830    0.028423   -0.011383

siesta: Pressure (static):         29.87217502  kBar

siesta: Stress tensor (total) (eV/Ang**3):
        -0.024534    0.014300    0.001501
         0.014300   -0.021138    0.028689
         0.001501    0.028689   -0.011543

siesta: Pressure (total):         30.55651046  kBar
 Anneal: Kinetic Energy=  0.403706630822382641E-02
 Anneal: Velocity scale factor =  1.00820464739712534
 Anneal: Cell scale factor =  1.00076121334656065

siesta: Temp_ion =     431.956 K

* Maximum dynamic memory allocated =     5 MB

siesta:                 ==============================
                            Begin MD step =     39
                        ==============================

superc: Internal auxiliary supercell:     5 x     5 x     5  =     125
superc: Number of atoms, orbitals, and projectors:    250  1000  2250

InitMesh: MESH =    20 x    20 x    20 =        8000
InitMesh: Mesh cutoff (required, used) =   100.000   107.333 Ry

siesta: Eharris(eV) =    -214.168896


siesta: Eharris(eV) =    -214.168896


siesta: Atomic forces (eV/Ang):
----------------------------------------
 Tot   -0.000001   -0.000000   -0.000000
----------------------------------------
 Max    0.991132
 Res    0.772685    sqrt( Sum f_i^2 / 3N )
----------------------------------------
 Max    0.991132    constrained

Stress-tensor-Voigt (kbar):      -36.62      -31.66      -20.10       24.48       50.74       -0.14
Target enthalpy (eV/cell)     -214.0884

siesta: Stress tensor (static) (eV/Ang**3):
        -0.022105    0.014762    0.000344
         0.014762   -0.019408    0.031373
         0.000344    0.031373   -0.012294

siesta: Pressure (static):         28.73687278  kBar

siesta: Stress tensor (total) (eV/Ang**3):
        -0.022858    0.015278   -0.000089
         0.015278   -0.019763    0.031670
        -0.000089    0.031670   -0.012543

siesta: Pressure (total):         29.46098353  kBar
 Anneal: Kinetic Energy=  0.426985016815405877E-02
 Anneal: Velocity scale factor =  1.00667652049932399
 Anneal: Cell scale factor =  1.00083257528471337

siesta: Temp_ion =     455.480 K

* Maximum dynamic memory allocated =     5 MB

siesta:                 ==============================
                            Begin MD step =     40
                        ==============================

superc: Internal auxiliary supercell:     5 x     5 x     5  =     125
superc: Number of atoms, orbitals, and projectors:    250  1000  2250

InitMesh: MESH =    20 x    20 x    20 =        8000
InitMesh: Mesh cutoff (required, used) =   100.000   107.267 Ry

siesta: Eharris(eV) =    -214.181152


siesta: Eharris(eV) =    -214.181152


siesta: Atomic forces (eV/Ang):
----------------------------------------
 Tot    0.000000    0.000000    0.000000
----------------------------------------
 Max    1.033932
 Res    0.756465    sqrt( Sum f_i^2 / 3N )
----------------------------------------
 Max    1.033932    constrained

Stress-tensor-Voigt (kbar):      -33.50      -29.47      -21.18       25.48       55.00       -2.57
Target enthalpy (eV/cell)     -214.0999

siesta: Stress tensor (static) (eV/Ang**3):
        -0.020097    0.015441   -0.001072
         0.015441   -0.018129    0.034023
        -0.001072    0.034023   -0.012870

siesta: Pressure (static):         27.28872776  kBar

siesta: Stress tensor (total) (eV/Ang**3):
        -0.020909    0.015906   -0.001605
         0.015906   -0.018395    0.034329
        -0.001605    0.034329   -0.013221

siesta: Pressure (total):         28.05153326  kBar
 Anneal: Kinetic Energy=  0.448751199816756468E-02
 Anneal: Velocity scale factor =  1.00538928992260823
 Anneal: Cell scale factor =  1.00088341692889427

siesta: Temp_ion =     477.475 K

* Maximum dynamic memory allocated =     5 MB

siesta:                 ==============================
                            Begin MD step =     41
                        ==============================

superc: Internal auxiliary supercell:     5 x     5 x     5  =     125
superc: Number of atoms, orbitals, and projectors:    250  1000  2250

InitMesh: MESH =    20 x    20 x    20 =        8000
InitMesh: Mesh cutoff (required, used) =   100.000   107.228 Ry

siesta: Eharris(eV) =    -214.192832


siesta: Eharris(eV) =    -214.192832


siesta: Atomic forces (eV/Ang):
----------------------------------------
 Tot   -0.000001    0.000001   -0.000000
----------------------------------------
 Max    1.062234
 Res    0.738645    sqrt( Sum f_i^2 / 3N )
----------------------------------------
 Max    1.062234    constrained

Stress-tensor-Voigt (kbar):      -31.05      -28.36      -23.52       27.56       59.06       -4.28
Target enthalpy (eV/cell)     -214.1108

siesta: Stress tensor (static) (eV/Ang**3):
        -0.018529    0.016804   -0.002044
         0.016804   -0.017518    0.036572
        -0.002044    0.036572   -0.014219

siesta: Pressure (static):         26.84557871  kBar

siesta: Stress tensor (total) (eV/Ang**3):
        -0.019382    0.017201   -0.002669
         0.017201   -0.017703    0.036863
        -0.002669    0.036863   -0.014678

siesta: Pressure (total):         27.64451455  kBar
 Anneal: Kinetic Energy=  0.468270326141129005E-02
 Anneal: Velocity scale factor =  1.00433549515783049
 Anneal: Cell scale factor =  1.00098398364092600

siesta: Temp_ion =     497.200 K

* Maximum dynamic memory allocated =     5 MB

siesta:                 ==============================
                            Begin MD step =     42
                        ==============================

superc: Internal auxiliary supercell:     5 x     5 x     5  =     125
superc: Number of atoms, orbitals, and projectors:    250  1000  2250

InitMesh: MESH =    20 x    20 x    20 =        8000
InitMesh: Mesh cutoff (required, used) =   100.000   107.208 Ry

siesta: Eharris(eV) =    -214.204232


siesta: Eharris(eV) =    -214.204232


siesta: Atomic forces (eV/Ang):
----------------------------------------
 Tot    0.000000    0.000000    0.000001
----------------------------------------
 Max    1.081658
 Res    0.722441    sqrt( Sum f_i^2 / 3N )
----------------------------------------
 Max    1.081658    constrained

Stress-tensor-Voigt (kbar):      -27.05      -27.07      -24.96       29.62       63.91       -5.09
Target enthalpy (eV/cell)     -214.1214

siesta: Stress tensor (static) (eV/Ang**3):
        -0.016011    0.018168   -0.002472
         0.018168   -0.016782    0.039631
        -0.002472    0.039631   -0.015009

siesta: Pressure (static):         25.52893396  kBar

siesta: Stress tensor (total) (eV/Ang**3):
        -0.016884    0.018484   -0.003177
         0.018484   -0.016896    0.039886
        -0.003177    0.039886   -0.015578

siesta: Pressure (total):         26.36019970  kBar
 Anneal: Kinetic Energy=  0.484632844056862369E-02
 Anneal: Velocity scale factor =  1.00351676005270152
 Anneal: Cell scale factor =  1.00104826128289881

siesta: Temp_ion =     513.735 K

* Maximum dynamic memory allocated =     5 MB

siesta:                 ==============================
                            Begin MD step =     43
                        ==============================

superc: Internal auxiliary supercell:     5 x     5 x     5  =     125
superc: Number of atoms, orbitals, and projectors:    250  1000  2250

InitMesh: MESH =    20 x    20 x    20 =        8000
InitMesh: Mesh cutoff (required, used) =   100.000   107.213 Ry

siesta: Eharris(eV) =    -214.214757


siesta: Eharris(eV) =    -214.214757


siesta: Atomic forces (eV/Ang):
----------------------------------------
 Tot    0.000001   -0.000001   -0.000000
----------------------------------------
 Max    1.099089
 Res    0.715177    sqrt( Sum f_i^2 / 3N )
----------------------------------------
 Max    1.099089    constrained

Stress-tensor-Voigt (kbar):      -22.52      -23.43      -25.78       30.55       68.56       -5.32
Target enthalpy (eV/cell)     -214.1310

siesta: Stress tensor (static) (eV/Ang**3):
        -0.013184    0.018840   -0.002553
         0.018840   -0.014565    0.042594
        -0.002553    0.042594   -0.015416

siesta: Pressure (static):         23.05296976  kBar

siesta: Stress tensor (total) (eV/Ang**3):
        -0.014056    0.019068   -0.003320
         0.019068   -0.014625    0.042794
        -0.003320    0.042794   -0.016092

siesta: Pressure (total):         23.91122973  kBar
 Anneal: Kinetic Energy=  0.496834571088038655E-02
 Anneal: Velocity scale factor =  1.00294092093913956
 Anneal: Cell scale factor =  1.00108696967088751

siesta: Temp_ion =     526.065 K

* Maximum dynamic memory allocated =     5 MB

siesta:                 ==============================
[...]
InitMesh: Mesh cutoff (required, used) =   100.000   107.358 Ry

siesta: Eharris(eV) =    -214.520817


siesta: Eharris(eV) =    -214.520817


siesta: Atomic forces (eV/Ang):
----------------------------------------
 Tot    0.000003    0.000007   -0.000001
----------------------------------------
 Max    0.833227
 Res    0.676690    sqrt( Sum f_i^2 / 3N )
----------------------------------------
 Max    0.833227    constrained

Stress-tensor-Voigt (kbar):       13.43       21.37      -20.13       -5.86       49.40       -1.79
Target enthalpy (eV/cell)     -214.4286

siesta: Stress tensor (static) (eV/Ang**3):
         0.008995   -0.003304   -0.000364
        -0.003304    0.013543    0.031270
        -0.000364    0.031270   -0.011634

siesta: Pressure (static):         -5.82349758  kBar

siesta: Stress tensor (total) (eV/Ang**3):
         0.008381   -0.003659   -0.001120
        -0.003659    0.013338    0.030833
        -0.001120    0.030833   -0.012565

siesta: Pressure (total):         -4.88884914  kBar
 Anneal: Kinetic Energy=  0.537904334048979523E-02
 Anneal: Velocity scale factor =  1.00119263205151010
 Anneal: Cell scale factor =  1.00087036132253804

siesta: Temp_ion =     567.567 K

* Maximum dynamic memory allocated =     5 MB

siesta:                 ==============================
                            Begin MD step =    113
                        ==============================

superc: Internal auxiliary supercell:     5 x     5 x     5  =     125
superc: Number of atoms, orbitals, and projectors:    250  1000  2250

InitMesh: MESH =    20 x    20 x    20 =        8000
InitMesh: Mesh cutoff (required, used) =   100.000   107.658 Ry

siesta: Eharris(eV) =    -214.520322


siesta: Eharris(eV) =    -214.520322


siesta: Atomic forces (eV/Ang):
----------------------------------------
 Tot    0.000004    0.000007   -0.000001
----------------------------------------
 Max    0.910480
 Res    0.678730    sqrt( Sum f_i^2 / 3N )
----------------------------------------
 Max    0.910480    constrained

Stress-tensor-Voigt (kbar):       15.87       21.77      -19.77       -2.29       51.04        2.41
Target enthalpy (eV/cell)     -214.4278

siesta: Stress tensor (static) (eV/Ang**3):
         0.010412   -0.001053    0.002204
        -0.001053    0.013871    0.032377
         0.002204    0.032377   -0.011372

siesta: Pressure (static):         -6.89548900  kBar

siesta: Stress tensor (total) (eV/Ang**3):
         0.009902   -0.001431    0.001501
        -0.001431    0.013591    0.031855
         0.001501    0.031855   -0.012342

siesta: Pressure (total):         -5.95537494  kBar
 Anneal: Kinetic Energy=  0.537278392183272724E-02
 Anneal: Velocity scale factor =  1.00121729307537355
 Anneal: Cell scale factor =  1.00085648111379610

siesta: Temp_ion =     566.934 K

* Maximum dynamic memory allocated =     5 MB

siesta:                 ==============================
                            Begin MD step =    114
                        ==============================

superc: Internal auxiliary supercell:     5 x     5 x     5  =     125
superc: Number of atoms, orbitals, and projectors:    250  1000  2250

InitMesh: MESH =    20 x    20 x    20 =        8000
InitMesh: Mesh cutoff (required, used) =   100.000   107.967 Ry

siesta: Eharris(eV) =    -214.518711


siesta: Eharris(eV) =    -214.518711


siesta: Atomic forces (eV/Ang):
----------------------------------------
 Tot    0.000004    0.000007    0.000001
----------------------------------------
 Max    0.967029
 Res    0.679000    sqrt( Sum f_i^2 / 3N )
----------------------------------------
 Max    0.967029    constrained

Stress-tensor-Voigt (kbar):       16.87       20.71      -20.04        1.16       51.71        5.70
Target enthalpy (eV/cell)     -214.4259

siesta: Stress tensor (static) (eV/Ang**3):
         0.010934    0.001105    0.004195
         0.001105    0.013289    0.032873
         0.004195    0.032873   -0.011516

siesta: Pressure (static):         -6.78616287  kBar

siesta: Stress tensor (total) (eV/Ang**3):
         0.010528    0.000722    0.003560
         0.000722    0.012928    0.032274
         0.003560    0.032274   -0.012509

siesta: Pressure (total):         -5.84653188  kBar
 Anneal: Kinetic Energy=  0.533421627685211775E-02
 Anneal: Velocity scale factor =  1.00137050623566681
 Anneal: Cell scale factor =  1.00086648394994593

siesta: Temp_ion =     563.037 K

* Maximum dynamic memory allocated =     5 MB

siesta:                 ==============================
                            Begin MD step =    115
                        ==============================

superc: Internal auxiliary supercell:     5 x     5 x     5  =     125
superc: Number of atoms, orbitals, and projectors:    250  1000  2250

InitMesh: MESH =    20 x    20 x    20 =        8000
InitMesh: Mesh cutoff (required, used) =   100.000   108.272 Ry

siesta: Eharris(eV) =    -214.516535


siesta: Eharris(eV) =    -214.516535


siesta: Atomic forces (eV/Ang):
----------------------------------------
 Tot    0.000006    0.000009   -0.000001
----------------------------------------
 Max    1.011090
 Res    0.680701    sqrt( Sum f_i^2 / 3N )
----------------------------------------
 Max    1.011090    constrained

Stress-tensor-Voigt (kbar):       17.48       20.11      -20.66        4.85       52.41        9.87
Target enthalpy (eV/cell)     -214.4235

siesta: Stress tensor (static) (eV/Ang**3):
         0.011217    0.003398    0.006714
         0.003398    0.012994    0.033378
         0.006714    0.033378   -0.011894

siesta: Pressure (static):         -6.57766764  kBar

siesta: Stress tensor (total) (eV/Ang**3):
         0.010910    0.003029    0.006161
         0.003029    0.012549    0.032712
         0.006161    0.032712   -0.012892

siesta: Pressure (total):         -5.64377642  kBar
 Anneal: Kinetic Energy=  0.527485730179038347E-02
 Anneal: Velocity scale factor =  1.00161064524039478
 Anneal: Cell scale factor =  1.00088948497765728

siesta: Temp_ion =     557.039 K

* Maximum dynamic memory allocated =     5 MB

siesta:                 ==============================
                            Begin MD step =    116
                        ==============================

superc: Internal auxiliary supercell:     5 x     5 x     5  =     125
superc: Number of atoms, orbitals, and projectors:    250  1000  2250

InitMesh: MESH =    20 x    20 x    20 =        8000
InitMesh: Mesh cutoff (required, used) =   100.000   108.576 Ry

siesta: Eharris(eV) =    -214.514001


siesta: Eharris(eV) =    -214.514001


siesta: Atomic forces (eV/Ang):
----------------------------------------
 Tot    0.000004    0.000010   -0.000001
----------------------------------------
 Max    1.043953
 Res    0.682501    sqrt( Sum f_i^2 / 3N )
----------------------------------------
 Max    1.043953    constrained

Stress-tensor-Voigt (kbar):       18.90       19.24      -20.33        7.62       52.83       12.95
Target enthalpy (eV/cell)     -214.4207

siesta: Stress tensor (static) (eV/Ang**3):
         0.012012    0.005091    0.008544
         0.005091    0.012538    0.033693
         0.008544    0.033693   -0.011698

siesta: Pressure (static):         -6.86355041  kBar

siesta: Stress tensor (total) (eV/Ang**3):
         0.011795    0.004753    0.008081
         0.004753    0.012011    0.032972
         0.008081    0.032972   -0.012687

siesta: Pressure (total):         -5.93880071  kBar
 Anneal: Kinetic Energy=  0.520374525717149164E-02
 Anneal: Velocity scale factor =  1.00190546602259190
 Anneal: Cell scale factor =  1.00087400114879310

siesta: Temp_ion =     549.853 K

* Maximum dynamic memory allocated =     5 MB

siesta:                 ==============================
                            Begin MD step =    117
                        ==============================

superc: Internal auxiliary supercell:     5 x     5 x     5  =     125
superc: Number of atoms, orbitals, and projectors:    250  1000  2250

InitMesh: MESH =    20 x    20 x    20 =        8000
InitMesh: Mesh cutoff (required, used) =   100.000   108.876 Ry

siesta: Eharris(eV) =    -214.510921


siesta: Eharris(eV) =    -214.510921


siesta: Atomic forces (eV/Ang):
----------------------------------------
 Tot    0.000005    0.000010   -0.000001
----------------------------------------
 Max    1.060504
 Res    0.680198    sqrt( Sum f_i^2 / 3N )
----------------------------------------
 Max    1.060504    constrained

Stress-tensor-Voigt (kbar):       19.20       18.90      -18.49       10.97       52.75       16.36
Target enthalpy (eV/cell)     -214.4175

siesta: Stress tensor (static) (eV/Ang**3):
         0.012121    0.007140    0.010576
         0.007140    0.012404    0.033689
         0.010576    0.033689   -0.010572

siesta: Pressure (static):         -7.45140199  kBar

siesta: Stress tensor (total) (eV/Ang**3):
         0.011981    0.006849    0.010209
         0.006849    0.011798    0.032924
         0.010209    0.032924   -0.011538

siesta: Pressure (total):         -6.53766313  kBar
 Anneal: Kinetic Energy=  0.512532078020751323E-02
 Anneal: Velocity scale factor =  1.00223998427926997
 Anneal: Cell scale factor =  1.00079737297714311

siesta: Temp_ion =     541.928 K

* Maximum dynamic memory allocated =     5 MB

siesta:                 ==============================
                            Begin MD step =    118
                        ==============================

superc: Internal auxiliary supercell:     5 x     5 x     5  =     125
superc: Number of atoms, orbitals, and projectors:    250  1000  2250

InitMesh: MESH =    20 x    20 x    20 =        8000
InitMesh: Mesh cutoff (required, used) =   100.000   108.762 Ry

siesta: Eharris(eV) =    -214.507068


siesta: Eharris(eV) =    -214.507068


siesta: Atomic forces (eV/Ang):
----------------------------------------
 Tot    0.000005    0.000009   -0.000002
----------------------------------------
 Max    1.063058
 Res    0.676305    sqrt( Sum f_i^2 / 3N )
----------------------------------------
 Max    1.063058    constrained

Stress-tensor-Voigt (kbar):       19.19       18.33      -18.05       14.27       52.05       19.25
Target enthalpy (eV/cell)     -214.4136

siesta: Stress tensor (static) (eV/Ang**3):
         0.012055    0.009137    0.012282
         0.009137    0.012122    0.033283
         0.012282    0.033283   -0.010336

siesta: Pressure (static):         -7.39177633  kBar

siesta: Stress tensor (total) (eV/Ang**3):
         0.011976    0.008906    0.012012
         0.008906    0.011442    0.032488
         0.012012    0.032488   -0.011266

siesta: Pressure (total):         -6.49017351  kBar
 Anneal: Kinetic Energy=  0.504103585501890564E-02
 Anneal: Velocity scale factor =  1.00261097366638330
 Anneal: Cell scale factor =  1.00077628345964564

siesta: Temp_ion =     533.410 K

* Maximum dynamic memory allocated =     5 MB

siesta:                 ==============================
                            Begin MD step =    119
                        ==============================

superc: Internal auxiliary supercell:     5 x     5 x     5  =     125
superc: Number of atoms, orbitals, and projectors:    250  1000  2250

InitMesh: MESH =    20 x    20 x    20 =        8000
InitMesh: Mesh cutoff (required, used) =   100.000   108.640 Ry

siesta: Eharris(eV) =    -214.502808


siesta: Eharris(eV) =    -214.502808


siesta: Atomic forces (eV/Ang):
----------------------------------------
 Tot    0.000005    0.000010   -0.000001
----------------------------------------
 Max    1.050764
 Res    0.668977    sqrt( Sum f_i^2 / 3N )
----------------------------------------
 Max    1.050764    constrained

Stress-tensor-Voigt (kbar):       19.53       17.62      -16.10       17.39       51.07       22.24
Target enthalpy (eV/cell)     -214.4092

siesta: Stress tensor (static) (eV/Ang**3):
         0.012226    0.011011    0.014054
         0.011011    0.011743    0.032689
         0.014054    0.032689   -0.009167

siesta: Pressure (static):         -7.90546102  kBar

siesta: Stress tensor (total) (eV/Ang**3):
         0.012192    0.010851    0.013880
         0.010851    0.010996    0.031877
         0.013880    0.031877   -0.010050

siesta: Pressure (total):         -7.01686828  kBar
 Anneal: Kinetic Energy=  0.495263996572269626E-02
 Anneal: Velocity scale factor =  1.00301346860394913
 Anneal: Cell scale factor =  1.00069416847468928

siesta: Temp_ion =     524.478 K

* Maximum dynamic memory allocated =     5 MB

siesta:                 ==============================
                            Begin MD step =    120
                        ==============================

superc: Internal auxiliary supercell:     5 x     5 x     5  =     125
superc: Number of atoms, orbitals, and projectors:    250  1000  2250

InitMesh: MESH =    20 x    20 x    20 =        8000
InitMesh: Mesh cutoff (required, used) =   100.000   108.542 Ry

siesta: Eharris(eV) =    -214.497857


siesta: Eharris(eV) =    -214.497857


siesta: Atomic forces (eV/Ang):
----------------------------------------
 Tot    0.000004    0.000011   -0.000002
----------------------------------------
 Max    1.025059
 Res    0.661112    sqrt( Sum f_i^2 / 3N )
----------------------------------------
 Max    1.025059    constrained

Stress-tensor-Voigt (kbar):       18.76       16.18      -14.93       21.26       50.00       25.59
Target enthalpy (eV/cell)     -214.4043

siesta: Stress tensor (static) (eV/Ang**3):
         0.011715    0.013350    0.016051
         0.013350    0.010904    0.032022
         0.016051    0.032022   -0.008494

siesta: Pressure (static):         -7.54388498  kBar

siesta: Stress tensor (total) (eV/Ang**3):
         0.011707    0.013270    0.015969
         0.013270    0.010101    0.031207
         0.015969    0.031207   -0.009321

siesta: Pressure (total):         -6.66889807  kBar
 Anneal: Kinetic Energy=  0.485810176486726510E-02
 Anneal: Velocity scale factor =  1.00345995174742142
 Anneal: Cell scale factor =  1.00064279907564146

siesta: Temp_ion =     514.924 K

* Maximum dynamic memory allocated =     5 MB

siesta: Eigenvalues (eV):
  ik is    eps
   1  1 -15.37  -7.76  -5.26  -4.88  -2.11   0.04   0.56   3.75
   2  1 -13.40 -10.62  -8.08  -6.57  -0.08   1.58   4.55   5.31
   3  1 -13.46 -10.47  -8.01  -6.83  -0.01   1.58   4.56   5.04
   4  1 -13.40 -10.66  -7.91  -6.79   0.31   1.35   4.29   5.56
siesta: Fermi energy =      -3.592610 eV

siesta: Program's energy decomposition (eV):
siesta: Eions   =       380.802124
siesta: Ena     =       115.854285
siesta: Ekin    =        76.966467
siesta: Enl     =        29.341387
siesta: DEna    =         7.536753
siesta: DUscf   =         0.242431
siesta: DUext   =         0.000000
siesta: Exc     =       -63.543482
siesta: eta*DQ  =         0.000000
siesta: Emadel  =         0.000000
siesta: Ekinion =         0.066557
siesta: Eharris =      -214.431300
siesta: Etot    =      -214.337726
siesta: FreeEng =      -214.337726

siesta: Final energy (eV):
siesta:       Kinetic =      76.966467
siesta:       Hartree =      11.915843
siesta:    Ext. field =       0.000000
siesta:   Exch.-corr. =     -63.543482
siesta:  Ion-electron =     -94.370798
siesta:       Ion-ion =    -145.372313
siesta:       Ekinion =       0.066557
siesta:         Total =    -214.337726

siesta: Atomic forces (eV/Ang):
siesta:      1    1.025059   -0.155782    0.486001
siesta:      2   -1.025054    0.155793   -0.486003
siesta: ----------------------------------------
siesta:  Tot    0.000004    0.000011   -0.000002

siesta: Stress tensor (static) (eV/Ang**3):
siesta:     0.011715    0.013350    0.016051
siesta:     0.013350    0.010904    0.032022
siesta:     0.016051    0.032022   -0.008494

siesta: Cell volume =         40.996359 Ang**3

siesta: Pressure (static):
siesta:                Solid            Molecule  Units
siesta:          -0.00005128          0.00011871  Ry/Bohr**3
siesta:          -0.00470847          0.01089971  eV/Ang**3
siesta:          -7.54388498         17.46345514  kBar

* Maximum dynamic memory allocated : Node    0 =     5 MB

* Maximum memory occured during ranger                        

timer: CPU execution times:
timer:  Routine       Calls   Time/call    Tot.time        %
timer:  siesta            1     120.810     120.810   100.00
timer:  Setup             1       0.180       0.180     0.15
timer:  bands             1       0.000       0.000     0.00
timer:  writewave         1       0.000       0.000     0.00
timer:  KSV_init          1       0.000       0.000     0.00
timer:  IterMD          120       1.005     120.620    99.84
timer:  hsparse         121       0.017       2.050     1.70
timer:  overfsm         240       0.004       0.960     0.79
timer:  IterSCF         240       0.483     115.970    95.99
timer:  kinefsm         240       0.003       0.730     0.60
timer:  nlefsm          240       0.187      44.780    37.07
timer:  DHSCF           240       0.286      68.640    56.82
timer:  DHSCF1          120       0.090      10.810     8.95
timer:  DHSCF2          120       0.198      23.710    19.63
timer:  REORD          2160       0.000       0.110     0.09
timer:  POISON          360       0.001       0.340     0.28
timer:  DHSCF3          240       0.054      12.900    10.68
timer:  rhoofd          240       0.030       7.300     6.04
timer:  cellXC          360       0.006       2.030     1.68
timer:  vmat            240       0.016       3.810     3.15
timer:  diagon          120       0.008       0.940     0.78
timer:  cdiag           960       0.000       0.480     0.40
timer:  cdiag1          960       0.000       0.280     0.23
timer:  cdiag2          960       0.000       0.030     0.02
timer:  cdiag3          960       0.000       0.090     0.07
timer:  cdiag4          960       0.000       0.000     0.00
timer:  DHSCF4          120       0.176      21.150    17.51
timer:  dfscf           120       0.132      15.820    13.09
timer:  optical           1       0.000       0.000     0.00
  

elaps: ELAPSED times:
elaps:  Routine       Calls   Time/call    Tot.time        %
elaps:  siesta            1     121.630     121.630   100.00
elaps:  Setup             1       0.180       0.180     0.15
elaps:  bands             1       0.000       0.000     0.00
elaps:  writewave         1       0.000       0.000     0.00
elaps:  KSV_init          1       0.000       0.000     0.00
elaps:  IterMD          120       1.012     121.440    99.84
elaps:  hsparse         121       0.017       2.050     1.69
elaps:  overfsm         240       0.004       0.900     0.74
elaps:  IterSCF         240       0.486     116.680    95.93
elaps:  kinefsm         240       0.003       0.840     0.69
elaps:  nlefsm          240       0.187      44.840    36.87
elaps:  DHSCF           240       0.288      69.170    56.87
elaps:  DHSCF1          120       0.091      10.930     8.99
elaps:  DHSCF2          120       0.198      23.760    19.53
elaps:  REORD          2160       0.000       0.150     0.12
elaps:  POISON          360       0.001       0.400     0.33
elaps:  DHSCF3          240       0.055      13.190    10.84
elaps:  rhoofd          240       0.031       7.460     6.13
elaps:  cellXC          360       0.005       1.860     1.53
elaps:  vmat            240       0.016       3.930     3.23
elaps:  diagon          120       0.008       0.950     0.78
elaps:  cdiag           960       0.001       0.520     0.43
elaps:  cdiag1          960       0.000       0.350     0.29
elaps:  cdiag2          960       0.000       0.040     0.03
elaps:  cdiag3          960       0.000       0.050     0.04
elaps:  cdiag4          960       0.000       0.030     0.02
elaps:  DHSCF4          120       0.177      21.240    17.46
elaps:  dfscf           120       0.132      15.850    13.03
elaps:  optical           1       0.000       0.000     0.00
  
>> End of run:   7-DEC-2005  12:25:26
