
                           ***********************       
                           *  WELCOME TO SIESTA  *       
                           ***********************       

reinit: Reading from term4.fdf

reinit: -----------------------------------------------------------------------
reinit: System Name: 
reinit: -----------------------------------------------------------------------
reinit: System Label: term4
reinit: -----------------------------------------------------------------------
Siesta Version: siesta-4.1--731
Architecture  : x86_64-linux-n-62-18-14
Compiler flags: mpifort -m64 -fPIC -O3 -march=native -ftree-vectorize -fexpensive-optimizatioons -funroll-loops -fprefetch-loop-arrays -fno-second-underscore  -flto -fuse-linker-plugin
PP flags      : -I/zdata/groups/common/nicpa/2016-oct/generic/build-tools/1.0/include -I/zdatta/groups/common/nicpa/2016-oct/generic/gmp/6.1.0/include -I/zdata/groups/common/nicpa/2016-oct/generic/mpfr/3.1.4/include -I/zdata/groups/common/nicpa/2016-oct/generic/mpc/1.0.3/include -I/zdata/groups/common/nicpa/2016-oct/generic/isl/0.16.1/include -I/zdata/groups/common/nicpa/2016-oct/generic/gcc/6.2.0/include -I/zdata/groups/common/nicpa/2016-oct/generic/numactl/2.0.11/include -I/zdata/groups/common/nicpa/2016-oct/XeonE5-2665/zlib/1.2.8/gnu-6.2.0/include -I/zdata/groups/common/nicpa/2016-oct/XeonE5-2665/libxml2/2.9.4/gnu-6.2.0/include -I/zdata/groups/common/nicpa/2016-oct/XeonE5-2665/hwloc/1.11.4/gnu-6.2.0/include -I/zdata/groups/common/nicpa/2016-oct/XeonE5-2665/openmpi/2.0.1/gnu-6.2.0/include -I/zdata/groups/common/nicpa/2016-oct/XeonE5-2665/hdf5/1.8.17/gnu-6.2.0/include -I/zdata/groups/common/nicpa/2016-oct/XeonE5-2665/pnetcdf/1.7.0/gnu-6.2.0/include -I/zdata/groups/common/nicpa/2016-oct/XeonE5-2665/netcdf/4.4.1/gnu-6.2.0/include -I/zdata/groups/common/nicpa/2016-oct/XeonE5-2665/flook/0.7.0/gnu-6.2.0/include -I/zdata/groups/common/nicpa/2016-oct/XeonE5-2665/parmetis/4.0.3/gnu-6.2.0/include -I/zdata/groups/common/nicpa/2016-oct/XeonE5-2665/scalapack/204/gnu-6.2.0/include -I/zdata/groups/common/nicpa/2016-oct/XeonE5-2665/openblas/0.2.19/gnu-6.2.0/include -I/zdata/groups/common/nicpa/2016-oct/XeonE5-2665/mumps/5.0.2/gnu-6.2.0/include -I/zdata/groups/common/nicpa/2016-oct/XeonE5-2665/fftw/3.3.5/gnu-6.2.0/include -DMPI -DFC_HAVE_FLUSH -DFC_HAVE_ABORT -DCDF -DCDF4 -DSIESTA__METIS -DSIESTA__MUMPS -DTS_NOCHECKS -DNCDF -DNCDF_4 -DNCDF_PARALLEL -DSIESTA__FLOOK  -DTRANSIESTA
Libraries     : -lnetcdff -lnetcdf -lpnetcdf -lhdf5_hl -lhdf5 -lz  -lzmumps -lmumps_common -llpord -lparmetis -lmetis -lscalapack -lopenblas  -lmetis -flto -fuse-linker-plugin  -L/zdata/groups/common/nicpa/2016-oct/XeonE5-2665/flook/0.7.0/gnu-6.2.0/lib -Wl,-rpath=/zdata/groups/common/nicpa/2016-oct/XeonE5-2665/flook/0.7.0/gnu-6.2.0/lib -lflookall -ldl
PARALLEL version
TRANSIESTA support
NetCDF support
NetCDF-4 support
NetCDF-4 MPI-IO support
METIS ordering support

* Running on 8 nodes in parallel
>> Start of run:   2-JUL-2017  23:04:02

initatom: Reading input for the pseudopotentials and atomic orbitals ----------
Species number:   1 Atomic number:    6 Label: C

Ground state valence configuration:   2s02  2p02
Reading pseudopotential information in formatted form from C.psf

Valence configuration for pseudopotential generation:
2s( 2.00) rc: 1.49
2p( 2.00) rc: 1.52
3d( 0.00) rc: 1.58
relmxkb: Read Max KB Ang. Momentum=    2 for species C

<basis_specs>
===============================================================================
C                    Z=   6    Mass=  12.010        Charge= 0.17977+309
Lmxo=1 Lmxkb= 2    BasisType=split      Semic=F
L=0  Nsemic=0  Cnfigmx=2
          n=1  nzeta=1  polorb=0
            splnorm:   0.15000    
               vcte:    0.0000    
               rinn:    0.0000    
               qcoe:    0.0000    
               qyuk:    0.0000    
               qwid:   0.10000E-01
                rcs:    0.0000    
            lambdas:    1.0000    
L=1  Nsemic=0  Cnfigmx=2
          n=1  nzeta=1  polorb=1
            splnorm:   0.15000    
               vcte:    0.0000    
               rinn:    0.0000    
               qcoe:    0.0000    
               qyuk:    0.0000    
               qwid:   0.10000E-01
                rcs:    0.0000    
            lambdas:    1.0000    
-------------------------------------------------------------------------------
L=0  Nkbl=1  erefs: 0.17977+309
L=1  Nkbl=1  erefs: 0.17977+309
L=2  Nkbl=1  erefs: 0.17977+309
===============================================================================
</basis_specs>

atom: Called for C                     (Z =   6)

read_vps: Pseudopotential generation method:
read_vps: ATM3      Troullier-Martins                       
Total valence charge:    4.00000

xc_check: Exchange-correlation functional:
xc_check: Ceperley-Alder
V l=0 = -2*Zval/r beyond r=  1.4666
V l=1 = -2*Zval/r beyond r=  1.5038
V l=2 = -2*Zval/r beyond r=  1.5612
All V_l potentials equal beyond r=  1.5612
This should be close to max(r_c) in ps generation
All pots = -2*Zval/r beyond r=  1.5612

VLOCAL1: 99.0% of the norm of Vloc inside     17.809 Ry
VLOCAL1: 99.9% of the norm of Vloc inside     40.586 Ry
atom: Maximum radius for 4*pi*r*r*local-pseudopot. charge    1.88329
atom: Maximum radius for r*vlocal+2*Zval:    1.62091
GHOST: No ghost state for L =  0
GHOST: No ghost state for L =  1
GHOST: No ghost state for L =  2

KBgen: Kleinman-Bylander projectors: 
   l= 0   rc=  1.747182   el= -1.001947   Ekb=  5.181700   kbcos=  0.300603
   l= 1   rc=  1.747182   el= -0.398598   Ekb= -4.328763   kbcos= -0.367074
   l= 2   rc=  1.955272   el=  0.002326   Ekb= -1.016175   kbcos= -0.009979

KBgen: Total number of  Kleinman-Bylander projectors:    9
atom: -------------------------------------------------------------------------

atom: SANKEY-TYPE ORBITALS:

SPLIT: Orbitals with angular momentum L= 0

SPLIT: Basis orbitals for state 2s

SPLIT: PAO cut-off radius determined from an
SPLIT: energy shift=  0.020212 Ry

   izeta = 1
                 lambda =    1.000000
                     rc =    4.191849
                 energy =   -0.983897
                kinetic =    0.886956
    potential(screened) =   -1.870853
       potential(ionic) =   -5.479661

SPLIT: Orbitals with angular momentum L= 1

SPLIT: Basis orbitals for state 2p

SPLIT: PAO cut-off radius determined from an
SPLIT: energy shift=  0.020212 Ry

   izeta = 1
                 lambda =    1.000000
                     rc =    4.870301
                 energy =   -0.379093
                kinetic =    2.545357
    potential(screened) =   -2.924450
       potential(ionic) =   -6.433151

POLgen: Perturbative polarization orbital with L=  2

POLgen: Polarization orbital for state 2p

   izeta = 1
                     rc =    4.870301
                 energy =    1.280953
                kinetic =    2.629601
    potential(screened) =   -1.348648
       potential(ionic) =   -4.293268
atom: Total number of Sankey-type orbitals:  9

atm_pop: Valence configuration (for local Pseudopot. screening):
 2s( 2.00)                                                            
 2p( 2.00)                                                            
Vna: chval, zval:    4.00000   4.00000

Vna:  Cut-off radius for the neutral-atom potential:   4.870301

atom: _________________________________________________________________________

prinput: Basis input ----------------------------------------------------------

PAO.BasisType split     

%block ChemicalSpeciesLabel
    1    6 C                       # Species index, atomic number, species label
%endblock ChemicalSpeciesLabel

%block PAO.Basis                 # Define Basis set
C                     2                    # Species label, number of l-shells
 n=2   0   1                         # n, l, Nzeta 
   4.192   
   1.000   
 n=2   1   1 P   1                   # n, l, Nzeta, Polarization, NzetaPol
   4.870   
   1.000   
%endblock PAO.Basis

prinput: ----------------------------------------------------------------------

Dumping basis to NetCDF file C.ion.nc
coor:   Atomic-coordinates input format  =     Cartesian coordinates
coor:                                          (in Angstroms)

siesta: System type = slab      

initatomlists: Number of atoms, orbitals, and projectors:     48   432   432

siesta: ******************** Simulation parameters ****************************
siesta:
siesta: The following are some of the parameters of the simulation.
siesta: A complete list of the parameters used, including default values,
siesta: can be found in file out.fdf
siesta:
redata: Spin configuration                          = none
redata: Number of spin components                   = 1
redata: Time-Reversal Symmetry                      = T
redata: Spin-spiral                                 = F
redata: Long output                                 =   F
redata: Number of Atomic Species                    =        1
redata: Charge density info will appear in .RHO file
redata: Write Mulliken Pop.                         = Atomic and Orbital charges
redata: Mesh Cutoff                                 =   250.0000 Ry
redata: Net charge of the system                    =     0.0000 |e|
redata: Min. number of SCF Iter                     =        3
redata: Max. number of SCF Iter                     =      200
redata: SCF mix quantity                            = Hamiltonian
redata: Mix DM or H after convergence               =   F
redata: Recompute H after scf cycle                 =   F
redata: Mix DM in first SCF step                    =   T
redata: Write Pulay info on disk                    =   F
redata: New DM Mixing Weight                        =     0.0500
redata: New DM Occupancy tolerance                  = 0.000000000001
redata: No kicks to SCF
redata: DM Mixing Weight for Kicks                  =     0.5000
redata: Require Harris convergence for SCF          =   F
redata: Harris energy tolerance for SCF             =     0.000100 eV
redata: Require DM convergence for SCF              =   T
redata: DM tolerance for SCF                        =     0.0001
redata: Require EDM convergence for SCF             =   F
redata: EDM tolerance for SCF                       =     0.001000 eV
redata: Require H convergence for SCF               =   T
redata: Hamiltonian tolerance for SCF               =     0.001000 eV
redata: Require (free) Energy convergence for SCF   =   F
redata: (free) Energy tolerance for SCF             =     0.000100 eV
redata: Using Saved Data (generic)                  =   F
redata: Use continuation files for DM               =   T
redata: Neglect nonoverlap interactions             =   F
redata: Method of Calculation                       = Transiesta
redata: Fix the spin of the system                  =   F
redata: Dynamics option                             = Single-point calculation
mix.SCF: Pulay mixing                            = Pulay
mix.SCF:    Variant                              = stable
mix.SCF:    History steps                        = 6
mix.SCF:    Linear mixing weight                 =     0.050000
mix.SCF:    Mixing weight                        =     0.050000
mix.SCF:    SVD condition                        = 0.1000E-07
redata: Save all siesta data in one NC              =   F
redata: ***********************************************************************

%block SCF.Mixers
  Pulay
%endblock SCF.Mixers

%block SCF.Mixer.Pulay
  # Mixing method
  method pulay
  variant stable

  # Mixing options
  weight 0.0500
  weight.linear 0.0500
  history 6
%endblock SCF.Mixer.Pulay

DM_history_depth set to one: no extrapolation allowed by default for geometry relaxation
Size of DM history Fstack: 1
Total number of electrons:   192.000000
Total ionic charge:   192.000000

* ProcessorY, Blocksize:    2  24


* Orbital distribution balance (max,min):    72    48

k-point displ. along   1 input, could be:     0.00    0.50
k-point displ. along   3 input, could be:     0.00    0.50
 Kpoints in:            4 . Kpoints trimmed:            4

siesta: k-grid: Number of k-points =     4
siesta: k-grid: Cutoff (effective) =     6.000 Ang
siesta: k-grid: Supercell and displacements
siesta: k-grid:    2   0   0      0.000
siesta: k-grid:    0   1   0      0.000
siesta: k-grid:    0   0   2      0.000

superc: Internal auxiliary supercell:     3 x     1 x     3  =       9
superc: Number of atoms, orbitals, and projectors:    432   3888   3888

 Kpoints in:            1 . Kpoints trimmed:            1

transiesta: k-grid: Number of Green function k-points =     1
transiesta: k-grid: Supercell and displacements
transiesta: k-grid:    1   0   0      0.000
transiesta: k-grid:    0   1   0      0.000
transiesta: k-grid:    0   0   1      0.000

ts: **************************************************************
ts: Voltage                                         =    0.0000 Volts
ts: Save H and S matrices                           =    T
ts: Electronic temperature                          =  299.997806 K
ts: Transport individually selected for electrodes
ts: Fixing Hartree potential at electrode-plane     =    el-1
ts: Fix Hartree potential fraction                  =    1.0000
ts: Solution method                                 =    BTD
ts: BTD pivoting method                             =    atom+GGPS
ts: BTD creation algorithm                          =    speed
ts: SCF.TS DM tolerance                             = 0.100E-03
ts: SCF.TS Hamiltonian tolerance                    =    0.001000 eV
ts: Initialize DM by                                =    diagon
ts: Initial DM for electrodes                       =    this
ts: Will not correct charge fluctuations
ts: TS.SCF mixing options same as SCF
ts:           >> Electrodes << 
ts: >> el-1
ts:   Electrode cell pivoting: E1, E2, E3           = A1, A2, A3
ts:   GF file                                       = term4.TSGFel-1
ts:   Reuse existing GF-file                        =    T
ts:   Electrode TSHS file                           = ../elec-x/elec-x.TSHS
ts:   # atoms used in electrode                     =    4
ts:   Electrode Bloch expansion [E1 x E2 x E3]      = 1 x 1 x 1
ts:   Position in geometry                          = 1 -- 4
ts:   Semi-infinite direction for electrode         = negative wrt. E1
ts:   Chemical shift                                =    0.000000 eV
ts:   Electronic temperature                        =  299.997806 K
ts:   Bulk values in electrode                      =    T
ts:   Cross-terms are updated
ts:   Electrode self-energy imaginary Eta           =  0.1000E-03  eV
ts:   Electrode self-energy accuracy                =  0.1000E-13  eV
ts:   Electrode inter-layer distance (semi-inf)     =    1.2700  Ang
ts:   Hartree fix plane:
ts:     plane origo                                 = {  0.36500E+00,  0.60000E+01,  0.16240E+02} Ang
ts:     plane normal vector                         = {  0.10000E+01,  0.00000E+00,  0.00000E+00}
ts: >> el-2
ts:   Electrode cell pivoting: E1, E2, E3           = A1, A2, A3
ts:   GF file                                       = term4.TSGFel-2
ts:   Reuse existing GF-file                        =    T
ts:   Electrode TSHS file                           = ../elec-x/elec-x.TSHS
ts:   # atoms used in electrode                     =    4
ts:   Electrode Bloch expansion [E1 x E2 x E3]      = 1 x 1 x 1
ts:   Position in geometry                          = 45 -- 48
ts:   Semi-infinite direction for electrode         = positive wrt. E1
ts:   Chemical shift                                =    0.000000 eV
ts:   Electronic temperature                        =  299.997806 K
ts:   Bulk values in electrode                      =    T
ts:   Cross-terms are updated
ts:   Electrode self-energy imaginary Eta           =  0.1000E-03  eV
ts:   Electrode self-energy accuracy                =  0.1000E-13  eV
ts:   Electrode inter-layer distance (semi-inf)     =    1.2700  Ang
ts:   Hartree fix plane:
ts:     plane origo                                 = {  0.32115E+02,  0.60000E+01,  0.16240E+02} Ang
ts:     plane normal vector                         = {  0.10000E+01,  0.00000E+00,  0.00000E+00}
ts: >> el-3
ts:   Electrode cell pivoting: E1, E2, E3           = A3, A2, A1
ts:   GF file                                       = term4.TSGFel-3
ts:   Reuse existing GF-file                        =    T
ts:   Electrode TSHS file                           = ../elec-z/elec-z.TSHS
ts:   # atoms used in electrode                     =    4
ts:   Electrode Bloch expansion [E1 x E2 x E3]      = 1 x 1 x 1
ts:   Position in geometry                          = 13 -- 16
ts:   Semi-infinite direction for electrode         = negative wrt. E1
ts:   Chemical shift                                =    0.000000 eV
ts:   Electronic temperature                        =  299.997806 K
ts:   Bulk values in electrode                      =    T
ts:   Cross-terms are updated
ts:   Electrode self-energy imaginary Eta           =  0.1000E-03  eV
ts:   Electrode self-energy accuracy                =  0.1000E-13  eV
ts:   Electrode inter-layer distance (semi-inf)     =    1.2700  Ang
ts:   Hartree fix plane:
ts:     plane origo                                 = {  0.16240E+02,  0.60000E+01,  0.36500E+00} Ang
ts:     plane normal vector                         = {  0.00000E+00,  0.00000E+00,  0.10000E+01}
ts: >> el-4
ts:   Electrode cell pivoting: E1, E2, E3           = A3, A2, A1
ts:   GF file                                       = term4.TSGFel-4
ts:   Reuse existing GF-file                        =    T
ts:   Electrode TSHS file                           = ../elec-z/elec-z.TSHS
ts:   # atoms used in electrode                     =    4
ts:   Electrode Bloch expansion [E1 x E2 x E3]      = 1 x 1 x 1
ts:   Position in geometry                          = 33 -- 36
ts:   Semi-infinite direction for electrode         = positive wrt. E1
ts:   Chemical shift                                =    0.000000 eV
ts:   Electronic temperature                        =  299.997806 K
ts:   Bulk values in electrode                      =    T
ts:   Cross-terms are updated
ts:   Electrode self-energy imaginary Eta           =  0.1000E-03  eV
ts:   Electrode self-energy accuracy                =  0.1000E-13  eV
ts:   Electrode inter-layer distance (semi-inf)     =    1.2700  Ang
ts:   Hartree fix plane:
ts:     plane origo                                 = {  0.16240E+02,  0.60000E+01,  0.32115E+02} Ang
ts:     plane normal vector                         = {  0.00000E+00,  0.00000E+00,  0.10000E+01}
ts:  ----------------- Contour ----------------- 
ts:            >> Residual contour << 
ts: Pole chemical potential                         =    0.0000 eV
ts:    Chemical potential temperature               =  299.9978 K
ts:    Number of poles                              =   16
ts:    Top energy point                             =    2.5989 eV
ts:          >> Equilibrium contour << 
ts: Contour name                                    =    TS.Contour.C-high
ts:   circle contour E_min                          =  -40.0000 eV
ts:   circle contour E_max                          =   -0.2585 eV
ts:   circle contour points                         =   34
ts:   circle contour method                         =    Gauss-Legendre
ts: Contour name                                    =    TS.Contour.T-high
ts:   tail contour E_min                            =   -0.2585 eV
ts:   tail contour E_max                            =     Infinity
ts:   tail contour points                           =   12
ts:   tail contour method                           =    Gauss-Fermi (0kT)
ts: **************************************************************

************************ Begin: TS CHECKS AND WARNINGS ************************
 Memory usage can be reduced by setting:
    TS.BTD.Spectral propagation
Without loosing performance you can increase the equilibrium integration precision.
You can add 2 more energy points in the equilibrium contours, for FREE!
This is 2 more energy points per chemical potential.
*** TranSIESTA semi-infinite directions are individual ***
*** It is heavily adviced to have any electrodes with no periodicity
    in the transverse directions be located as far from any cell-boundaries
    as possible. This has to do with the electrostatic potential correction. ***
************************ End: TS CHECKS AND WARNINGS **************************


>>> Transiesta block information for FDF-file START <<<

%block TS.ChemPots
  high
%endblock TS.ChemPots

%block TS.ChemPot.high
  mu  V
  contour.eq
   begin
    C-high
    T-high
   end
%endblock TS.ChemPot.high
%block TS.Contour.C-high
  part circle
     from -40. eV + V to -10 kT + V
      points 34
        method g-legendre
%endblock TS.Contour.C-high
%block TS.Contour.T-high
  part tail
     from prev to + inf
      points 12
        method g-fermi
%endblock TS.Contour.T-high

>>> Transiesta block information for FDF-file END <<<


transiesta: Regions of atoms:
   ## (4): Elec.el-1
     [ 1 -- 4 ]
   ## (4): Elec.el-2
     [ 45 -- 48 ]
   ## (4): Elec.el-3
     [ 13 -- 16 ]
   ## (4): Elec.el-4
     [ 33 -- 36 ]
   -- (32): Device
     [ 5 -- 12, 17 -- 32, 37 -- 44 ]

  <sparsity:../elec-x/elec-x.TSHS
    nrows_g=36 nrows=36 sparsity=2.2500 nnzs=2916, refcount: 3>
  <sparsity:(TM [ 0,--,--] of: ../elec-x/elec-x.TSHS)
    nrows_g=36 nrows=36 sparsity=1.0000 nnzs=1296, refcount: 3>
  <sparsity:(TM [-1,--,--] of: ../elec-x/elec-x.TSHS)
    nrows_g=36 nrows=36 sparsity=.6250 nnzs=810, refcount: 3>
 el-1 principal cell is perfect!

Calculating all surface Green functions for: el-1
 Fermi level shift in electrode (chemical potential) :        0.00000  eV
 Atoms available    / used atoms   :      4 /      4
 Orbitals available / used orbitals:     36 /     36
 Total self-energy calculations: 62
 Saving surface Green functions in: term4.TSGFel-1
 Estimated file size:      1.266 MB
 Lopez Sancho, Lopez Sancho & Rubio recursive surface self-energy calculation...
 Lopez Sancho, Lopez Sancho & Rubio: Mean/std iterations:     4.8387 /     1.1804
 Lopez Sancho, Lopez Sancho & Rubio: Min/Max iterations :          4 /         10
Done creating 'term4.TSGFel-1'.

  <sparsity:../elec-x/elec-x.TSHS
    nrows_g=36 nrows=36 sparsity=2.2500 nnzs=2916, refcount: 3>
  <sparsity:(TM [ 0,--,--] of: ../elec-x/elec-x.TSHS)
    nrows_g=36 nrows=36 sparsity=1.0000 nnzs=1296, refcount: 3>
  <sparsity:(TM [ 1,--,--] of: ../elec-x/elec-x.TSHS)
    nrows_g=36 nrows=36 sparsity=.6250 nnzs=810, refcount: 3>
 el-2 principal cell is perfect!

Calculating all surface Green functions for: el-2
 Fermi level shift in electrode (chemical potential) :        0.00000  eV
 Atoms available    / used atoms   :      4 /      4
 Orbitals available / used orbitals:     36 /     36
 Total self-energy calculations: 62
 Saving surface Green functions in: term4.TSGFel-2
 Estimated file size:      1.266 MB
 Lopez Sancho, Lopez Sancho & Rubio recursive surface self-energy calculation...
 Lopez Sancho, Lopez Sancho & Rubio: Mean/std iterations:     4.8387 /     1.1804
 Lopez Sancho, Lopez Sancho & Rubio: Min/Max iterations :          4 /         10
Done creating 'term4.TSGFel-2'.

  <sparsity:../elec-z/elec-z.TSHS
    nrows_g=36 nrows=36 sparsity=2.2500 nnzs=2916, refcount: 3>
  <sparsity:(TM [ 0,--,--] of: ../elec-z/elec-z.TSHS)
    nrows_g=36 nrows=36 sparsity=1.0000 nnzs=1296, refcount: 3>
  <sparsity:(TM [-1,--,--] of: ../elec-z/elec-z.TSHS)
    nrows_g=36 nrows=36 sparsity=.6250 nnzs=810, refcount: 3>
 el-3 principal cell is perfect!

Calculating all surface Green functions for: el-3
 Fermi level shift in electrode (chemical potential) :        0.00000  eV
 Atoms available    / used atoms   :      4 /      4
 Orbitals available / used orbitals:     36 /     36
 Total self-energy calculations: 62
 Saving surface Green functions in: term4.TSGFel-3
 Estimated file size:      1.266 MB
 Lopez Sancho, Lopez Sancho & Rubio recursive surface self-energy calculation...
 Lopez Sancho, Lopez Sancho & Rubio: Mean/std iterations:     4.8387 /     1.1804
 Lopez Sancho, Lopez Sancho & Rubio: Min/Max iterations :          4 /         10
Done creating 'term4.TSGFel-3'.

  <sparsity:../elec-z/elec-z.TSHS
    nrows_g=36 nrows=36 sparsity=2.2500 nnzs=2916, refcount: 3>
  <sparsity:(TM [ 0,--,--] of: ../elec-z/elec-z.TSHS)
    nrows_g=36 nrows=36 sparsity=1.0000 nnzs=1296, refcount: 3>
  <sparsity:(TM [ 1,--,--] of: ../elec-z/elec-z.TSHS)
    nrows_g=36 nrows=36 sparsity=.6250 nnzs=810, refcount: 3>
 el-4 principal cell is perfect!

Calculating all surface Green functions for: el-4
 Fermi level shift in electrode (chemical potential) :        0.00000  eV
 Atoms available    / used atoms   :      4 /      4
 Orbitals available / used orbitals:     36 /     36
 Total self-energy calculations: 62
 Saving surface Green functions in: term4.TSGFel-4
 Estimated file size:      1.266 MB
 Lopez Sancho, Lopez Sancho & Rubio recursive surface self-energy calculation...
 Lopez Sancho, Lopez Sancho & Rubio: Mean/std iterations:     4.8387 /     1.1804
 Lopez Sancho, Lopez Sancho & Rubio: Min/Max iterations :          4 /         10
Done creating 'term4.TSGFel-4'.


                     ====================================
                        Single-point calculation
                     ====================================

superc: Internal auxiliary supercell:     3 x     1 x     3  =       9
superc: Number of atoms, orbitals, and projectors:    432   3888   3888

outcell: Unit cell vectors (Ang):
       31.750000    0.000000    0.000000
        0.000000   12.000000    0.000000
        0.000000    0.000000   31.750000

outcell: Cell vector modules (Ang)   :   31.750000   12.000000   31.750000
outcell: Cell angles (23,13,12) (deg):     90.0000     90.0000     90.0000
outcell: Cell volume (Ang**3)        :  12096.7500
<dSpData1D:S at geom step 0
  <sparsity:sparsity for geom step 0
    nrows_g=432 nrows=72 sparsity=.0381 nnzs=7110, refcount: 7>
  <dData1D:(new from dSpData1D) n=7110, refcount: 1>
refcount: 1>
new_DM -- step:     1
Initializing Density Matrix...

Attempting to read DM, EDM from TSDE file... Failed...
Attempting to read DM from file... Failed...
DM filled with atomic data:
<dSpData2D:DM initialized from atoms
  <sparsity:sparsity for geom step 0
    nrows_g=432 nrows=72 sparsity=.0381 nnzs=7110, refcount: 8>
  <dData2D:DM n=7110 m=1, refcount: 1>
refcount: 1>

transiesta: Initialization run using siesta


No. of atoms with KB's overlaping orbs in proc 0. Max # of overlaps:      25      72
New grid distribution:   1
           1       1:  160    1:   30    1:   40
           2       1:  160    1:   30   41:   80
           3       1:  160    1:   30   81:  120
           4       1:  160    1:   30  121:  160
           5       1:  160   31:   60    1:   40
           6       1:  160   31:   60   41:   80
           7       1:  160   31:   60   81:  120
           8       1:  160   31:   60  121:  160

InitMesh: MESH =   320 x   120 x   320 =    12288000
InitMesh: (bp) =   160 x    60 x   160 =     1536000
InitMesh: Mesh cutoff (required, used) =   250.000   276.377 Ry
ExtMesh (bp) on 0 =   212 x    82 x    92 =     1599328
New grid distribution:   2
           1       1:   82    1:   60    1:   73
           2      83:  160    1:   60   74:   82
           3       1:   82    1:   60   83:   91
           4       1:   82    1:   60   92:  160
           5      83:  160    1:   60    1:   73
           6       1:   82    1:   60   74:   82
           7      83:  160    1:   60   83:   91
           8      83:  160    1:   60   92:  160
New grid distribution:   3
           1       1:   82    1:   60    1:   71
           2      83:  160    1:   60   71:   82
           3       1:   82    1:   60   83:   93
           4      83:  160    1:   60   94:  160
           5      83:  160    1:   60    1:   70
           6       1:   82    1:   60   72:   82
           7      83:  160    1:   60   83:   93
           8       1:   82    1:   60   94:  160
Setting up quadratic distribution...
ExtMesh (bp) on 0 =   134 x   112 x   125 =     1876000
PhiOnMesh: Number of (b)points on node 0 =               359160
PhiOnMesh: nlist on node 0 =               550816

ts: Using electrode: el-1 for Hartree correction
ts: Number of points used: 38400

ts-Vha: -0.19223E-06 eV

stepf: Fermi-Dirac step function
ts-Vha:  0.19022E+00 eV

siesta: Program's energy decomposition (eV):
siesta: Ebs     =     -2987.396529
siesta: Eions   =     11965.679247
siesta: Ena     =      2421.787249
siesta: Ekin    =      4807.216627
siesta: Enl     =      -614.971676
siesta: Eso     =         0.000000
siesta: Eldau   =         0.000000
siesta: DEna    =       145.324933
siesta: DUscf   =        12.728886
siesta: DUext   =         0.000000
siesta: Exc     =     -2133.999959
siesta: eta*DQ  =         0.000000
siesta: Emadel  =         0.000000
siesta: Emeta   =         0.000000
siesta: Emolmec =         0.000000
siesta: Ekinion =         0.000000
siesta: Eharris =     -7354.373331
siesta: Etot    =     -7327.593189
siesta: FreeEng =     -7327.609802

        iscf     Eharris(eV)        E_KS(eV)     FreeEng(eV)     dDmax    Ef(eV) dHmax(eV)
   scf:    1    -7354.373331    -7327.593189    -7327.609802  1.549701 -5.827588  5.942357
timer: Routine,Calls,Time,% = IterSCF        1       4.467  65.10
ts-Vha:  0.64872E-01 eV
   scf:    2    -7329.327358    -7328.599437    -7328.616748  0.034214 -5.903234  3.552057
ts-Vha: -0.24193E-01 eV
   scf:    3    -7329.382830    -7329.133350    -7329.151343  0.043609 -6.022560  1.135898
ts-Vha:  0.23350E-01 eV
   scf:    4    -7329.355079    -7329.312113    -7329.330489  0.033212 -6.195241  0.807971
ts-Vha:  0.40607E-02 eV
   scf:    5    -7329.239298    -7329.320947    -7329.339523  0.021081 -6.590833  0.595800
ts-Vha:  0.27784E-01 eV
   scf:    6    -7329.353108    -7329.352090    -7329.370504  0.011369 -6.775543  0.336142
ts-Vha:  0.17966E-01 eV
   scf:    7    -7329.287188    -7329.352173    -7329.370229  0.024294 -6.817014  0.472950
ts-Vha:  0.21925E-01 eV
   scf:    8    -7329.383118    -7329.379128    -7329.397181  0.010598 -6.814312  0.039217
ts-Vha:  0.22091E-01 eV
   scf:    9    -7329.379458    -7329.379312    -7329.397339  0.000521 -6.814882  0.029170
ts-Vha:  0.22996E-01 eV
   scf:   10    -7329.380059    -7329.379753    -7329.397702  0.000643 -6.818544  0.013269
ts-Vha:  0.22778E-01 eV
   scf:   11    -7329.379854    -7329.379805    -7329.397741  0.000135 -6.818736  0.010402
ts-Vha:  0.22436E-01 eV
   scf:   12    -7329.379931    -7329.379871    -7329.397788  0.000172 -6.816632  0.004681
ts-Vha:  0.22456E-01 eV
   scf:   13    -7329.379907    -7329.379890    -7329.397803  0.000112 -6.816259  0.004183
ts-Vha:  0.22515E-01 eV
   scf:   14    -7329.379920    -7329.379908    -7329.397817  0.000280 -6.816897  0.002886
ts-Vha:  0.22508E-01 eV
   scf:   15    -7329.379917    -7329.379913    -7329.397820  0.000048 -6.817575  0.002283
ts-Vha:  0.22540E-01 eV
   scf:   16    -7329.379919    -7329.379916    -7329.397822  0.000031 -6.818078  0.001723
ts-Vha:  0.22551E-01 eV
   scf:   17    -7329.379916    -7329.379916    -7329.397822  0.000042 -6.818237  0.000821

SCF Convergence by DM+H criterion
max |DM_out - DM_in|         :     0.0000424560
max |H_out - H_in|      (eV) :     0.0008207950
SCF cycle converged after 17 iterations

                     ***************************
                     *  WELCOME TO TRANSIESTA  *
                     ***************************

ts-Vha:  0.22551E-01 eV

Created the TranSIESTA H,S sparsity pattern.
  <sparsity:(M of: G ((UC of: T T T T T T T sparsity for geom step 0)))
    nrows_g=432 nrows=432 sparsity=.1763 nnzs=32904, refcount: 2>

TranSIESTA global update sparsity pattern same as H,S

transiesta: Determining an optimal tri-matrix using: atom+GPS
transiesta: Established a near-optimal partition for the tri-diagonal matrix.
BTD partitions (6): 
  [ 45, 36, 63, 108, 108, 72 ]
transiesta: Matrix elements in tri / full: 96066 / 186624

transiesta: mem of electrodes (static):                     0.08MB
transiesta: mem of global update arrays (static):           1.00MB
transiesta: mem of tri-diagonal matrices:                   2.93MB
transiesta: Total memory usage:                             4.01MB

transiesta: Charge distribution, target =    192.00000
Total charge                  [Q]  :   192.00000
Device                        [D]  :   125.21070
el-1                          [E1] :    14.60613
el-1                 / device [C1] :     1.39414
el-2                          [E2] :    14.60599
el-2                 / device [C2] :     1.39419
el-3                          [E3] :    14.60613
el-3                 / device [C3] :     1.39414
el-4                          [E4] :    14.60599
el-4                 / device [C4] :     1.39419
Other                         [O]  :     2.78839

ts-q:         D        E1        C1        E2        C2        E3        C3        E4        C4        dQ
ts-q:   125.485    14.606     1.396    14.606     1.396    14.606     1.396    14.606     1.396  2.818E-1
ts-Vha: -0.97201E-01 eV

siesta: Program's energy decomposition (eV):
siesta: Ebs     =     -2820.542319
siesta: Eions   =     11965.679247
siesta: Ena     =      2421.787249
siesta: Ekin    =      4825.554999
siesta: Enl     =      -618.621887
siesta: Eso     =         0.000000
siesta: Eldau   =         0.000000
siesta: DEna    =       134.243207
siesta: DUscf   =         9.973191
siesta: DUext   =         0.000000
siesta: Exc     =     -2138.823187
siesta: eta*DQ  =         0.000000
siesta: Emadel  =         0.000000
siesta: Emeta   =         0.000000
siesta: Emolmec =         0.000000
siesta: Ekinion =         0.000000
siesta: Eharris =     -7333.661986
siesta: Etot    =     -7331.565674
siesta: FreeEng =     -7331.565674

        iscf     Eharris(eV)        E_KS(eV)     FreeEng(eV)     dDmax    Ef(eV) dHmax(eV)
ts-scf:    1    -7333.661986    -7331.565674    -7331.565674  0.016887 -6.818237  0.737054
timer: Routine,Calls,Time,% = TS             1       0.274   0.53
ts-q:         D        E1        C1        E2        C2        E3        C3        E4        C4        dQ
ts-q:   125.290    14.606     1.395    14.606     1.395    14.606     1.395    14.606     1.395  8.113E-2
ts-Vha: -0.57588E-02 eV
ts-scf:    2    -7328.395798    -7329.996211    -7329.996211  0.005282 -6.818237  0.158064
ts-q:         D        E1        C1        E2        C2        E3        C3        E4        C4        dQ
ts-q:   125.243    14.606     1.394    14.606     1.394    14.606     1.394    14.606     1.394  3.120E-2
ts-Vha:  0.13496E-01 eV
ts-scf:    3    -7329.109182    -7329.553903    -7329.553903  0.001755 -6.818237  0.056071
ts-q:         D        E1        C1        E2        C2        E3        C3        E4        C4        dQ
ts-q:   125.232    14.606     1.394    14.606     1.394    14.606     1.394    14.606     1.394  1.906E-2
ts-Vha:  0.15363E-01 eV
ts-scf:    4    -7329.274200    -7329.414344    -7329.414344  0.001077 -6.818237  0.017348
ts-q:         D        E1        C1        E2        C2        E3        C3        E4        C4        dQ
ts-q:   125.231    14.606     1.394    14.606     1.394    14.606     1.394    14.606     1.394  1.881E-2
ts-Vha:  0.15529E-01 eV
ts-scf:    5    -7329.438729    -7329.426694    -7329.426694  0.001597 -6.818237  0.007330
ts-q:         D        E1        C1        E2        C2        E3        C3        E4        C4        dQ
ts-q:   125.235    14.606     1.394    14.606     1.394    14.606     1.394    14.606     1.394  2.376E-2
ts-Vha:  0.13518E-01 eV
ts-scf:    6    -7329.544420    -7329.485538    -7329.485538  0.000312 -6.818237  0.014733
ts-q:         D        E1        C1        E2        C2        E3        C3        E4        C4        dQ
ts-q:   125.216    14.606     1.394    14.606     1.394    14.606     1.394    14.606     1.394  3.726E-3
ts-Vha:  0.22201E-01 eV
ts-scf:    7    -7329.141842    -7329.314092    -7329.314092  0.001006 -6.818237  0.047398
ts-q:         D        E1        C1        E2        C2        E3        C3        E4        C4        dQ
ts-q:   125.231    14.606     1.394    14.606     1.394    14.606     1.394    14.606     1.394  1.964E-2
ts-Vha:  0.15231E-01 eV
ts-scf:    8    -7329.588777    -7329.451424    -7329.451424  0.000695 -6.818237  0.001432
ts-q:         D        E1        C1        E2        C2        E3        C3        E4        C4        dQ
ts-q:   125.231    14.606     1.394    14.606     1.394    14.606     1.394    14.606     1.394  1.955E-2
ts-Vha:  0.15265E-01 eV
ts-scf:    9    -7329.449280    -7329.450353    -7329.450353  0.000014 -6.818237  0.001153
ts-q:         D        E1        C1        E2        C2        E3        C3        E4        C4        dQ
ts-q:   125.231    14.606     1.394    14.606     1.394    14.606     1.394    14.606     1.394  1.950E-2
ts-Vha:  0.15280E-01 eV
ts-scf:   10    -7329.447465    -7329.448909    -7329.448909  0.000040 -6.818237  0.000625

SCF Convergence by DM+H criterion
max |DM_out - DM_in|         :     0.0000403629
max |H_out - H_in|      (eV) :     0.0006249114
SCF cycle converged after 10 iterations

Using DM_out to compute the final energy and forces
No. of atoms with KB's overlaping orbs in proc 0. Max # of overlaps:      25      72
ts-Vha:  0.15280E-01 eV

siesta: E_KS(eV) =            -7329.4489

siesta: E_KS - E_eggbox =     -7329.4489

siesta: Atomic forces (eV/Ang):
     1   -0.056142   -0.000000    0.000691
     2    0.059806    0.000000    0.000526
     3   -0.069701   -0.000000    0.000690
     4    0.054736    0.000000    0.000549
     5   -0.016615    0.000000    0.000725
     6    0.005966   -0.000000    0.000693
     7    0.000747   -0.000000    0.000533
     8    0.004051   -0.000000    0.000676
     9   -0.009472    0.000000    0.000554
    10   -0.067148   -0.000000    0.000709
    11   -0.883399    0.000000    0.002652
    12    8.837957    0.000000   -0.007778
    13    0.000691    0.000000   -0.056142
    14    0.000526   -0.000000    0.059806
    15    0.000690    0.000000   -0.069701
    16    0.000549    0.000000    0.054736
    17    0.000725    0.000000   -0.016615
    18    0.000693   -0.000000    0.005966
    19    0.000533    0.000000    0.000747
    20    0.000676    0.000000    0.004051
    21    0.000554    0.000000   -0.009472
    22    0.000709   -0.000000   -0.067148
    23    0.002652    0.000000   -0.883399
    24   -0.007778   -0.000000    8.837957
    25    0.015350   -0.000000   -8.865124
    26    0.001213    0.000000    0.883003
    27    0.000778    0.000000    0.070681
    28    0.000503   -0.000000    0.005540
    29    0.000692    0.000000    0.006852
    30    0.000561   -0.000000   -0.005320
    31    0.000709   -0.000000   -0.005009
    32    0.000684   -0.000000    0.017400
    33    0.000521   -0.000000   -0.059101
    34    0.000706   -0.000000    0.080828
    35    0.000553   -0.000000   -0.064068
    36    0.000701   -0.000000    0.057249
    37   -8.865124    0.000000    0.015350
    38    0.883003   -0.000000    0.001213
    39    0.070681   -0.000000    0.000778
    40    0.005540   -0.000000    0.000503
    41    0.006852   -0.000000    0.000692
    42   -0.005320   -0.000000    0.000561
    43   -0.005009    0.000000    0.000709
    44    0.017400    0.000000    0.000684
    45   -0.059101    0.000000    0.000521
    46    0.080828   -0.000000    0.000706
    47   -0.064068   -0.000000    0.000553
    48    0.057249   -0.000000    0.000701
----------------------------------------
   Tot    0.007911   -0.000000    0.007911
----------------------------------------
   Max    8.865124
   Res    1.482784    sqrt( Sum f_i^2 / 3N )
----------------------------------------
   Max    8.865124    constrained

Stress-tensor-Voigt (kbar):       -9.53        0.00       -9.53        0.00       -0.00       -0.01
(Free)E + p*V (eV/cell)    -7281.4944
Target enthalpy (eV/cell)    -7329.4489

mulliken: Atomic and Orbital Populations:

Species: C                   
Atom  Qatom  Qorb
               2s      2py     2pz     2px     2Pdxy   2Pdyz   2Pdz2   2Pdxz   
               2Pdx2-y2
   1  4.000   0.899   0.987   0.978   1.085   0.018   0.000   0.004   0.017
              0.012
   2  4.000   0.899   0.987   0.978   1.085   0.018   0.000   0.004   0.017
              0.012
   3  4.000   0.899   0.987   0.978   1.085   0.018  -0.000   0.004   0.017
              0.012
   4  4.000   0.900   0.990   0.973   1.085   0.018   0.000   0.004   0.018
              0.012
   5  4.003   0.897   0.983   0.987   1.084   0.018  -0.000   0.004   0.017
              0.012
   6  4.000   0.901   0.982   0.978   1.086   0.018  -0.000   0.004   0.019
              0.012
   7  4.002   0.897   0.984   0.988   1.083   0.018  -0.000   0.004   0.016
              0.012
   8  3.999   0.901   0.982   0.976   1.087   0.018  -0.000   0.004   0.019
              0.012
   9  4.003   0.896   0.985   0.990   1.082   0.018  -0.000   0.004   0.015
              0.012
  10  3.998   0.907   0.978   0.971   1.090   0.017  -0.000   0.004   0.021
              0.011
  11  3.981   0.885   0.981   0.985   1.074   0.024   0.000   0.007   0.011
              0.014
  12  4.020   1.096   0.942   0.866   1.032   0.016   0.004   0.008   0.045
              0.011
  13  4.000   0.899   0.987   1.085   0.978   0.000   0.018   0.016   0.017
              0.000
  14  4.000   0.899   0.987   1.085   0.978   0.000   0.018   0.016   0.017
              0.000
  15  4.000   0.899   0.987   1.085   0.978  -0.000   0.018   0.016   0.017
              0.000
  16  4.000   0.900   0.990   1.085   0.973   0.000   0.018   0.016   0.018
              0.000
  17  4.003   0.897   0.983   1.084   0.987  -0.000   0.018   0.017   0.017
             -0.000
  18  4.000   0.901   0.982   1.086   0.978  -0.000   0.018   0.016   0.019
             -0.000
  19  4.002   0.897   0.984   1.083   0.988  -0.000   0.018   0.016   0.016
             -0.000
  20  3.999   0.901   0.982   1.087   0.976  -0.000   0.018   0.016   0.019
             -0.000
  21  4.003   0.896   0.985   1.082   0.990  -0.000   0.018   0.016   0.015
             -0.000
  22  3.998   0.907   0.978   1.090   0.971  -0.000   0.017   0.015   0.021
             -0.000
  23  3.981   0.885   0.981   1.074   0.985   0.000   0.024   0.021   0.011
              0.000
  24  4.020   1.096   0.942   1.032   0.866   0.004   0.016   0.017   0.045
              0.001
  25  4.020   1.096   0.942   1.032   0.866   0.004   0.016   0.017   0.045
              0.001
  26  3.981   0.885   0.981   1.074   0.985   0.000   0.024   0.021   0.011
              0.000
  27  3.998   0.907   0.978   1.090   0.971  -0.000   0.017   0.015   0.021
             -0.000
  28  4.003   0.896   0.985   1.082   0.990  -0.000   0.018   0.016   0.015
             -0.000
  29  3.999   0.901   0.982   1.087   0.976  -0.000   0.018   0.016   0.019
             -0.000
  30  4.002   0.897   0.984   1.083   0.988  -0.000   0.018   0.016   0.016
             -0.000
  31  3.999   0.901   0.982   1.086   0.978  -0.000   0.018   0.016   0.019
             -0.000
  32  4.003   0.897   0.983   1.084   0.987  -0.000   0.018   0.017   0.017
             -0.000
  33  4.000   0.900   0.990   1.085   0.973   0.000   0.018   0.016   0.018
              0.000
  34  4.000   0.899   0.987   1.085   0.978  -0.000   0.018   0.016   0.017
              0.000
  35  4.000   0.899   0.987   1.085   0.978   0.000   0.018   0.016   0.017
              0.000
  36  4.000   0.899   0.987   1.085   0.978   0.000   0.018   0.016   0.017
              0.000
  37  4.020   1.096   0.942   0.866   1.032   0.016   0.004   0.008   0.045
              0.011
  38  3.981   0.885   0.981   0.985   1.074   0.024   0.000   0.007   0.011
              0.014
  39  3.998   0.907   0.978   0.971   1.090   0.017  -0.000   0.004   0.021
              0.011
  40  4.003   0.896   0.985   0.990   1.082   0.018  -0.000   0.004   0.015
              0.012
  41  3.999   0.901   0.982   0.976   1.087   0.018  -0.000   0.004   0.019
              0.012
  42  4.002   0.897   0.984   0.988   1.083   0.018  -0.000   0.004   0.016
              0.012
  43  3.999   0.901   0.982   0.978   1.086   0.018  -0.000   0.004   0.019
              0.012
  44  4.003   0.897   0.983   0.987   1.084   0.018  -0.000   0.004   0.017
              0.012
  45  4.000   0.900   0.990   0.973   1.085   0.018   0.000   0.004   0.018
              0.012
  46  4.000   0.899   0.987   0.978   1.085   0.018  -0.000   0.004   0.017
              0.012
  47  4.000   0.899   0.987   0.978   1.085   0.018   0.000   0.004   0.017
              0.012
  48  4.000   0.899   0.987   0.978   1.085   0.018   0.000   0.004   0.017
              0.012

mulliken: Qtot =      192.020

siesta: Program's energy decomposition (eV):
siesta: Ebs     =     -2894.026716
siesta: Eions   =     11965.679247
siesta: Ena     =      2421.787249
siesta: Ekin    =      4816.815917
siesta: Enl     =      -616.832204
siesta: Eso     =         0.000000
siesta: Eldau   =         0.000000
siesta: DEna    =       139.450434
siesta: DUscf   =        10.205633
siesta: DUext   =         0.000000
siesta: Exc     =     -2135.196691
siesta: eta*DQ  =         0.000000
siesta: Emadel  =         0.000000
siesta: Emeta   =         0.000000
siesta: Emolmec =         0.000000
siesta: Ekinion =         0.000000
siesta: Eharris =     -7329.447465
siesta: Etot    =     -7329.448909
siesta: FreeEng =     -7329.448909

siesta: Final energy (eV):
siesta:  Band Struct. =   -2894.026716
siesta:       Kinetic =    4816.815917
siesta:       Hartree =   19001.561952
siesta:       Eldau   =       0.000000
siesta:       Eso     =       0.000000
siesta:    Ext. field =       0.000000
siesta:   Exch.-corr. =   -2135.196691
siesta:  Ion-electron =  -42923.147302
siesta:       Ion-ion =   13910.517214
siesta:       Ekinion =       0.000000
siesta:         Total =   -7329.448909
siesta:         Fermi =      -6.818237

siesta: Atomic forces (eV/Ang):
siesta:      1   -0.056142   -0.000000    0.000691
siesta:      2    0.059806    0.000000    0.000526
siesta:      3   -0.069701   -0.000000    0.000690
siesta:      4    0.054736    0.000000    0.000549
siesta:      5   -0.016615    0.000000    0.000725
siesta:      6    0.005966   -0.000000    0.000693
siesta:      7    0.000747   -0.000000    0.000533
siesta:      8    0.004051   -0.000000    0.000676
siesta:      9   -0.009472    0.000000    0.000554
siesta:     10   -0.067148   -0.000000    0.000709
siesta:     11   -0.883399    0.000000    0.002652
siesta:     12    8.837957    0.000000   -0.007778
siesta:     13    0.000691    0.000000   -0.056142
siesta:     14    0.000526   -0.000000    0.059806
siesta:     15    0.000690    0.000000   -0.069701
siesta:     16    0.000549    0.000000    0.054736
siesta:     17    0.000725    0.000000   -0.016615
siesta:     18    0.000693   -0.000000    0.005966
siesta:     19    0.000533    0.000000    0.000747
siesta:     20    0.000676    0.000000    0.004051
siesta:     21    0.000554    0.000000   -0.009472
siesta:     22    0.000709   -0.000000   -0.067148
siesta:     23    0.002652    0.000000   -0.883399
siesta:     24   -0.007778   -0.000000    8.837957
siesta:     25    0.015350   -0.000000   -8.865124
siesta:     26    0.001213    0.000000    0.883003
siesta:     27    0.000778    0.000000    0.070681
siesta:     28    0.000503   -0.000000    0.005540
siesta:     29    0.000692    0.000000    0.006852
siesta:     30    0.000561   -0.000000   -0.005320
siesta:     31    0.000709   -0.000000   -0.005009
siesta:     32    0.000684   -0.000000    0.017400
siesta:     33    0.000521   -0.000000   -0.059101
siesta:     34    0.000706   -0.000000    0.080828
siesta:     35    0.000553   -0.000000   -0.064068
siesta:     36    0.000701   -0.000000    0.057249
siesta:     37   -8.865124    0.000000    0.015350
siesta:     38    0.883003   -0.000000    0.001213
siesta:     39    0.070681   -0.000000    0.000778
siesta:     40    0.005540   -0.000000    0.000503
siesta:     41    0.006852   -0.000000    0.000692
siesta:     42   -0.005320   -0.000000    0.000561
siesta:     43   -0.005009    0.000000    0.000709
siesta:     44    0.017400    0.000000    0.000684
siesta:     45   -0.059101    0.000000    0.000521
siesta:     46    0.080828   -0.000000    0.000706
siesta:     47   -0.064068   -0.000000    0.000553
siesta:     48    0.057249   -0.000000    0.000701
siesta: ----------------------------------------
siesta:    Tot    0.007911   -0.000000    0.007911

siesta: Stress tensor (static) (eV/Ang**3):
siesta:    -0.005947   -0.000000   -0.000004
siesta:     0.000000    0.000002   -0.000000
siesta:    -0.000004   -0.000000   -0.005947

siesta: Cell volume =      12096.750000 Ang**3

siesta: Pressure (static):
siesta:                Solid            Molecule  Units
siesta:           0.00004318          0.00005312  Ry/Bohr**3
siesta:           0.00396425          0.00487729  eV/Ang**3
siesta:           6.35149820          7.81435932  kBar
(Free)E+ p_basis*V_orbitals  =       -7318.116448
(Free)Eharris+ p_basis*V_orbitals  =       -7318.115004

siesta: Electric dipole (a.u.)  =   -0.000000   -0.000000   -0.000000
siesta: Electric dipole (Debye) =   -0.000000   -0.000000   -0.000000
>> End of run:   2-JUL-2017  23:05:14
Job completed
