
                           ***********************       
                           *  WELCOME TO SIESTA  *       
                           ***********************       

reinit: Reading from term3.fdf

reinit: -----------------------------------------------------------------------
reinit: System Name: 
reinit: -----------------------------------------------------------------------
reinit: System Label: term3
reinit: -----------------------------------------------------------------------
Siesta Version: siesta-4.1--731
Architecture  : x86_64-linux-n-62-18-14
Compiler flags: mpifort -m64 -fPIC -O3 -march=native -ftree-vectorize -fexpensive-optimizatioons -funroll-loops -fprefetch-loop-arrays -fno-second-underscore  -flto -fuse-linker-plugin
PP flags      : -I/zdata/groups/common/nicpa/2016-oct/generic/build-tools/1.0/include -I/zdatta/groups/common/nicpa/2016-oct/generic/gmp/6.1.0/include -I/zdata/groups/common/nicpa/2016-oct/generic/mpfr/3.1.4/include -I/zdata/groups/common/nicpa/2016-oct/generic/mpc/1.0.3/include -I/zdata/groups/common/nicpa/2016-oct/generic/isl/0.16.1/include -I/zdata/groups/common/nicpa/2016-oct/generic/gcc/6.2.0/include -I/zdata/groups/common/nicpa/2016-oct/generic/numactl/2.0.11/include -I/zdata/groups/common/nicpa/2016-oct/XeonE5-2665/zlib/1.2.8/gnu-6.2.0/include -I/zdata/groups/common/nicpa/2016-oct/XeonE5-2665/libxml2/2.9.4/gnu-6.2.0/include -I/zdata/groups/common/nicpa/2016-oct/XeonE5-2665/hwloc/1.11.4/gnu-6.2.0/include -I/zdata/groups/common/nicpa/2016-oct/XeonE5-2665/openmpi/2.0.1/gnu-6.2.0/include -I/zdata/groups/common/nicpa/2016-oct/XeonE5-2665/hdf5/1.8.17/gnu-6.2.0/include -I/zdata/groups/common/nicpa/2016-oct/XeonE5-2665/pnetcdf/1.7.0/gnu-6.2.0/include -I/zdata/groups/common/nicpa/2016-oct/XeonE5-2665/netcdf/4.4.1/gnu-6.2.0/include -I/zdata/groups/common/nicpa/2016-oct/XeonE5-2665/flook/0.7.0/gnu-6.2.0/include -I/zdata/groups/common/nicpa/2016-oct/XeonE5-2665/parmetis/4.0.3/gnu-6.2.0/include -I/zdata/groups/common/nicpa/2016-oct/XeonE5-2665/scalapack/204/gnu-6.2.0/include -I/zdata/groups/common/nicpa/2016-oct/XeonE5-2665/openblas/0.2.19/gnu-6.2.0/include -I/zdata/groups/common/nicpa/2016-oct/XeonE5-2665/mumps/5.0.2/gnu-6.2.0/include -I/zdata/groups/common/nicpa/2016-oct/XeonE5-2665/fftw/3.3.5/gnu-6.2.0/include -DMPI -DFC_HAVE_FLUSH -DFC_HAVE_ABORT -DCDF -DCDF4 -DSIESTA__METIS -DSIESTA__MUMPS -DTS_NOCHECKS -DNCDF -DNCDF_4 -DNCDF_PARALLEL -DSIESTA__FLOOK  -DTRANSIESTA
Libraries     : -lnetcdff -lnetcdf -lpnetcdf -lhdf5_hl -lhdf5 -lz  -lzmumps -lmumps_common -llpord -lparmetis -lmetis -lscalapack -lopenblas  -lmetis -flto -fuse-linker-plugin  -L/zdata/groups/common/nicpa/2016-oct/XeonE5-2665/flook/0.7.0/gnu-6.2.0/lib -Wl,-rpath=/zdata/groups/common/nicpa/2016-oct/XeonE5-2665/flook/0.7.0/gnu-6.2.0/lib -lflookall -ldl
PARALLEL version
TRANSIESTA support
NetCDF support
NetCDF-4 support
NetCDF-4 MPI-IO support
METIS ordering support

* Running on 8 nodes in parallel
>> Start of run:   2-JUL-2017  23:02:04

initatom: Reading input for the pseudopotentials and atomic orbitals ----------
Species number:   1 Atomic number:    6 Label: C

Ground state valence configuration:   2s02  2p02
Reading pseudopotential information in formatted form from C.psf

Valence configuration for pseudopotential generation:
2s( 2.00) rc: 1.49
2p( 2.00) rc: 1.52
3d( 0.00) rc: 1.58
relmxkb: Read Max KB Ang. Momentum=    2 for species C

<basis_specs>
===============================================================================
C                    Z=   6    Mass=  12.010        Charge= 0.17977+309
Lmxo=1 Lmxkb= 2    BasisType=split      Semic=F
L=0  Nsemic=0  Cnfigmx=2
          n=1  nzeta=1  polorb=0
            splnorm:   0.15000    
               vcte:    0.0000    
               rinn:    0.0000    
               qcoe:    0.0000    
               qyuk:    0.0000    
               qwid:   0.10000E-01
                rcs:    0.0000    
            lambdas:    1.0000    
L=1  Nsemic=0  Cnfigmx=2
          n=1  nzeta=1  polorb=1
            splnorm:   0.15000    
               vcte:    0.0000    
               rinn:    0.0000    
               qcoe:    0.0000    
               qyuk:    0.0000    
               qwid:   0.10000E-01
                rcs:    0.0000    
            lambdas:    1.0000    
-------------------------------------------------------------------------------
L=0  Nkbl=1  erefs: 0.17977+309
L=1  Nkbl=1  erefs: 0.17977+309
L=2  Nkbl=1  erefs: 0.17977+309
===============================================================================
</basis_specs>

atom: Called for C                     (Z =   6)

read_vps: Pseudopotential generation method:
read_vps: ATM3      Troullier-Martins                       
Total valence charge:    4.00000

xc_check: Exchange-correlation functional:
xc_check: Ceperley-Alder
V l=0 = -2*Zval/r beyond r=  1.4666
V l=1 = -2*Zval/r beyond r=  1.5038
V l=2 = -2*Zval/r beyond r=  1.5612
All V_l potentials equal beyond r=  1.5612
This should be close to max(r_c) in ps generation
All pots = -2*Zval/r beyond r=  1.5612

VLOCAL1: 99.0% of the norm of Vloc inside     17.809 Ry
VLOCAL1: 99.9% of the norm of Vloc inside     40.586 Ry
atom: Maximum radius for 4*pi*r*r*local-pseudopot. charge    1.88329
atom: Maximum radius for r*vlocal+2*Zval:    1.62091
GHOST: No ghost state for L =  0
GHOST: No ghost state for L =  1
GHOST: No ghost state for L =  2

KBgen: Kleinman-Bylander projectors: 
   l= 0   rc=  1.747182   el= -1.001947   Ekb=  5.181700   kbcos=  0.300603
   l= 1   rc=  1.747182   el= -0.398598   Ekb= -4.328763   kbcos= -0.367074
   l= 2   rc=  1.955272   el=  0.002326   Ekb= -1.016175   kbcos= -0.009979

KBgen: Total number of  Kleinman-Bylander projectors:    9
atom: -------------------------------------------------------------------------

atom: SANKEY-TYPE ORBITALS:

SPLIT: Orbitals with angular momentum L= 0

SPLIT: Basis orbitals for state 2s

SPLIT: PAO cut-off radius determined from an
SPLIT: energy shift=  0.020212 Ry

   izeta = 1
                 lambda =    1.000000
                     rc =    4.191849
                 energy =   -0.983897
                kinetic =    0.886956
    potential(screened) =   -1.870853
       potential(ionic) =   -5.479661

SPLIT: Orbitals with angular momentum L= 1

SPLIT: Basis orbitals for state 2p

SPLIT: PAO cut-off radius determined from an
SPLIT: energy shift=  0.020212 Ry

   izeta = 1
                 lambda =    1.000000
                     rc =    4.870301
                 energy =   -0.379093
                kinetic =    2.545357
    potential(screened) =   -2.924450
       potential(ionic) =   -6.433151

POLgen: Perturbative polarization orbital with L=  2

POLgen: Polarization orbital for state 2p

   izeta = 1
                     rc =    4.870301
                 energy =    1.280953
                kinetic =    2.629601
    potential(screened) =   -1.348648
       potential(ionic) =   -4.293268
atom: Total number of Sankey-type orbitals:  9

atm_pop: Valence configuration (for local Pseudopot. screening):
 2s( 2.00)                                                            
 2p( 2.00)                                                            
Vna: chval, zval:    4.00000   4.00000

Vna:  Cut-off radius for the neutral-atom potential:   4.870301

atom: _________________________________________________________________________

prinput: Basis input ----------------------------------------------------------

PAO.BasisType split     

%block ChemicalSpeciesLabel
    1    6 C                       # Species index, atomic number, species label
%endblock ChemicalSpeciesLabel

%block PAO.Basis                 # Define Basis set
C                     2                    # Species label, number of l-shells
 n=2   0   1                         # n, l, Nzeta 
   4.192   
   1.000   
 n=2   1   1 P   1                   # n, l, Nzeta, Polarization, NzetaPol
   4.870   
   1.000   
%endblock PAO.Basis

prinput: ----------------------------------------------------------------------

Dumping basis to NetCDF file C.ion.nc
coor:   Atomic-coordinates input format  =     Cartesian coordinates
coor:                                          (in Angstroms)

siesta: System type = chain     

initatomlists: Number of atoms, orbitals, and projectors:     43   387   387

siesta: ******************** Simulation parameters ****************************
siesta:
siesta: The following are some of the parameters of the simulation.
siesta: A complete list of the parameters used, including default values,
siesta: can be found in file out.fdf
siesta:
redata: Spin configuration                          = none
redata: Number of spin components                   = 1
redata: Time-Reversal Symmetry                      = T
redata: Spin-spiral                                 = F
redata: Long output                                 =   F
redata: Number of Atomic Species                    =        1
redata: Charge density info will appear in .RHO file
redata: Write Mulliken Pop.                         = Atomic and Orbital charges
redata: Mesh Cutoff                                 =   250.0000 Ry
redata: Net charge of the system                    =     0.0000 |e|
redata: Min. number of SCF Iter                     =        3
redata: Max. number of SCF Iter                     =      200
redata: SCF mix quantity                            = Hamiltonian
redata: Mix DM or H after convergence               =   F
redata: Recompute H after scf cycle                 =   F
redata: Mix DM in first SCF step                    =   T
redata: Write Pulay info on disk                    =   F
redata: New DM Mixing Weight                        =     0.0500
redata: New DM Occupancy tolerance                  = 0.000000000001
redata: No kicks to SCF
redata: DM Mixing Weight for Kicks                  =     0.5000
redata: Require Harris convergence for SCF          =   F
redata: Harris energy tolerance for SCF             =     0.000100 eV
redata: Require DM convergence for SCF              =   T
redata: DM tolerance for SCF                        =     0.0001
redata: Require EDM convergence for SCF             =   F
redata: EDM tolerance for SCF                       =     0.001000 eV
redata: Require H convergence for SCF               =   T
redata: Hamiltonian tolerance for SCF               =     0.001000 eV
redata: Require (free) Energy convergence for SCF   =   F
redata: (free) Energy tolerance for SCF             =     0.000100 eV
redata: Using Saved Data (generic)                  =   F
redata: Use continuation files for DM               =   T
redata: Neglect nonoverlap interactions             =   F
redata: Method of Calculation                       = Transiesta
redata: Fix the spin of the system                  =   F
redata: Dynamics option                             = Single-point calculation
mix.SCF: Pulay mixing                            = Pulay
mix.SCF:    Variant                              = stable
mix.SCF:    History steps                        = 6
mix.SCF:    Linear mixing weight                 =     0.050000
mix.SCF:    Mixing weight                        =     0.050000
mix.SCF:    SVD condition                        = 0.1000E-07
redata: Save all siesta data in one NC              =   F
redata: ***********************************************************************

%block SCF.Mixers
  Pulay
%endblock SCF.Mixers

%block SCF.Mixer.Pulay
  # Mixing method
  method pulay
  variant stable

  # Mixing options
  weight 0.0500
  weight.linear 0.0500
  history 6
%endblock SCF.Mixer.Pulay

DM_history_depth set to one: no extrapolation allowed by default for geometry relaxation
Size of DM history Fstack: 1
Total number of electrons:   172.000000
Total ionic charge:   172.000000

* ProcessorY, Blocksize:    2  24


* Orbital distribution balance (max,min):    51    48

k-point displ. along   1 input, could be:     0.00    0.50
k-point displ. along   3 input, could be:     0.00    0.50
 Kpoints in:            4 . Kpoints trimmed:            4

siesta: k-grid: Number of k-points =     4
siesta: k-grid: Cutoff (effective) =     6.000 Ang
siesta: k-grid: Supercell and displacements
siesta: k-grid:    2   0   0      0.000
siesta: k-grid:    0   1   0      0.000
siesta: k-grid:    0   0   2      0.000

superc: Internal auxiliary supercell:     1 x     1 x     3  =       3
superc: Number of atoms, orbitals, and projectors:    129   1161   1161

 Kpoints in:            1 . Kpoints trimmed:            1

transiesta: k-grid: Number of Green function k-points =     1
transiesta: k-grid: Supercell and displacements
transiesta: k-grid:    1   0   0      0.000
transiesta: k-grid:    0   1   0      0.000
transiesta: k-grid:    0   0   1      0.000

ts: **************************************************************
ts: Voltage                                         =    0.0000 Volts
ts: Save H and S matrices                           =    T
ts: Electronic temperature                          =  299.997806 K
ts: Transport individually selected for electrodes
ts: Fixing Hartree potential at electrode-plane     =    el-1
ts: Fix Hartree potential fraction                  =    1.0000
ts: Solution method                                 =    BTD
ts: BTD pivoting method                             =    atom+GGPS
ts: BTD creation algorithm                          =    speed
ts: SCF.TS DM tolerance                             = 0.100E-03
ts: SCF.TS Hamiltonian tolerance                    =    0.001000 eV
ts: Initialize DM by                                =    diagon
ts: Initial DM for electrodes                       =    this
ts: Will not correct charge fluctuations
ts: TS.SCF mixing options same as SCF
ts:           >> Electrodes << 
ts: >> el-1
ts:   Electrode cell pivoting: E1, E2, E3           = A1, A2, A3
ts:   GF file                                       = term3.TSGFel-1
ts:   Reuse existing GF-file                        =    T
ts:   Electrode TSHS file                           = ../elec-x/elec-x.TSHS
ts:   # atoms used in electrode                     =    4
ts:   Electrode Bloch expansion [E1 x E2 x E3]      = 1 x 1 x 1
ts:   Position in geometry                          = 1 -- 4
ts:   Semi-infinite direction for electrode         = negative wrt. E1
ts:   Chemical shift                                =    0.000000 eV
ts:   Electronic temperature                        =  299.997806 K
ts:   Bulk values in electrode                      =    T
ts:   Cross-terms are updated
ts:   Electrode self-energy imaginary Eta           =  0.1000E-03  eV
ts:   Electrode self-energy accuracy                =  0.1000E-13  eV
ts:   Electrode inter-layer distance (semi-inf)     =    1.2700  Ang
ts:   Hartree fix plane:
ts:     plane origo                                 = {  0.36500E+00,  0.60000E+01,  0.16240E+02} Ang
ts:     plane normal vector                         = {  0.10000E+01,  0.00000E+00,  0.00000E+00}
ts: >> el-3
ts:   Electrode cell pivoting: E1, E2, E3           = A3, A2, A1
ts:   GF file                                       = term3.TSGFel-3
ts:   Reuse existing GF-file                        =    T
ts:   Electrode TSHS file                           = ../elec-z/elec-z.TSHS
ts:   # atoms used in electrode                     =    4
ts:   Electrode Bloch expansion [E1 x E2 x E3]      = 1 x 1 x 1
ts:   Position in geometry                          = 13 -- 16
ts:   Semi-infinite direction for electrode         = negative wrt. E1
ts:   Chemical shift                                =    0.000000 eV
ts:   Electronic temperature                        =  299.997806 K
ts:   Bulk values in electrode                      =    T
ts:   Cross-terms are updated
ts:   Electrode self-energy imaginary Eta           =  0.1000E-03  eV
ts:   Electrode self-energy accuracy                =  0.1000E-13  eV
ts:   Electrode inter-layer distance (semi-inf)     =    1.2700  Ang
ts:   Hartree fix plane:
ts:     plane origo                                 = {  0.16240E+02,  0.60000E+01,  0.36500E+00} Ang
ts:     plane normal vector                         = {  0.00000E+00,  0.00000E+00,  0.10000E+01}
ts: >> el-4
ts:   Electrode cell pivoting: E1, E2, E3           = A3, A2, A1
ts:   GF file                                       = term3.TSGFel-4
ts:   Reuse existing GF-file                        =    T
ts:   Electrode TSHS file                           = ../elec-z/elec-z.TSHS
ts:   # atoms used in electrode                     =    4
ts:   Electrode Bloch expansion [E1 x E2 x E3]      = 1 x 1 x 1
ts:   Position in geometry                          = 33 -- 36
ts:   Semi-infinite direction for electrode         = positive wrt. E1
ts:   Chemical shift                                =    0.000000 eV
ts:   Electronic temperature                        =  299.997806 K
ts:   Bulk values in electrode                      =    T
ts:   Cross-terms are updated
ts:   Electrode self-energy imaginary Eta           =  0.1000E-03  eV
ts:   Electrode self-energy accuracy                =  0.1000E-13  eV
ts:   Electrode inter-layer distance (semi-inf)     =    1.2700  Ang
ts:   Hartree fix plane:
ts:     plane origo                                 = {  0.16240E+02,  0.60000E+01,  0.32115E+02} Ang
ts:     plane normal vector                         = {  0.00000E+00,  0.00000E+00,  0.10000E+01}
ts:  ----------------- Contour ----------------- 
ts:            >> Residual contour << 
ts: Pole chemical potential                         =    0.0000 eV
ts:    Chemical potential temperature               =  299.9978 K
ts:    Number of poles                              =   16
ts:    Top energy point                             =    2.5989 eV
ts:          >> Equilibrium contour << 
ts: Contour name                                    =    TS.Contour.C-high
ts:   circle contour E_min                          =  -40.0000 eV
ts:   circle contour E_max                          =   -0.2585 eV
ts:   circle contour points                         =   34
ts:   circle contour method                         =    Gauss-Legendre
ts: Contour name                                    =    TS.Contour.T-high
ts:   tail contour E_min                            =   -0.2585 eV
ts:   tail contour E_max                            =     Infinity
ts:   tail contour points                           =   12
ts:   tail contour method                           =    Gauss-Fermi (0kT)
ts: **************************************************************

************************ Begin: TS CHECKS AND WARNINGS ************************
Without loosing performance you can increase the equilibrium integration precision.
You can add 2 more energy points in the equilibrium contours, for FREE!
This is 2 more energy points per chemical potential.
*** TranSIESTA semi-infinite directions are individual ***
*** It is heavily adviced to have any electrodes with no periodicity
    in the transverse directions be located as far from any cell-boundaries
    as possible. This has to do with the electrostatic potential correction. ***
************************ End: TS CHECKS AND WARNINGS **************************


>>> Transiesta block information for FDF-file START <<<

%block TS.ChemPots
  high
%endblock TS.ChemPots

%block TS.ChemPot.high
  mu  V
  contour.eq
   begin
    C-high
    T-high
   end
%endblock TS.ChemPot.high
%block TS.Contour.C-high
  part circle
     from -40. eV + V to -10 kT + V
      points 34
        method g-legendre
%endblock TS.Contour.C-high
%block TS.Contour.T-high
  part tail
     from prev to + inf
      points 12
        method g-fermi
%endblock TS.Contour.T-high

>>> Transiesta block information for FDF-file END <<<


transiesta: Regions of atoms:
   ## (4): Elec.el-1
     [ 1 -- 4 ]
   ## (4): Elec.el-3
     [ 13 -- 16 ]
   ## (4): Elec.el-4
     [ 33 -- 36 ]
   -- (31): Device
     [ 5 -- 12, 17 -- 32, 37 -- 43 ]

  <sparsity:../elec-x/elec-x.TSHS
    nrows_g=36 nrows=36 sparsity=2.2500 nnzs=2916, refcount: 3>
  <sparsity:(TM [ 0,--,--] of: ../elec-x/elec-x.TSHS)
    nrows_g=36 nrows=36 sparsity=1.0000 nnzs=1296, refcount: 3>
  <sparsity:(TM [-1,--,--] of: ../elec-x/elec-x.TSHS)
    nrows_g=36 nrows=36 sparsity=.6250 nnzs=810, refcount: 3>
 el-1 principal cell is perfect!

Calculating all surface Green functions for: el-1
 Fermi level shift in electrode (chemical potential) :        0.00000  eV
 Atoms available    / used atoms   :      4 /      4
 Orbitals available / used orbitals:     36 /     36
 Total self-energy calculations: 62
 Saving surface Green functions in: term3.TSGFel-1
 Estimated file size:      1.266 MB
 Lopez Sancho, Lopez Sancho & Rubio recursive surface self-energy calculation...
 Lopez Sancho, Lopez Sancho & Rubio: Mean/std iterations:     4.8387 /     1.1804
 Lopez Sancho, Lopez Sancho & Rubio: Min/Max iterations :          4 /         10
Done creating 'term3.TSGFel-1'.

  <sparsity:../elec-z/elec-z.TSHS
    nrows_g=36 nrows=36 sparsity=2.2500 nnzs=2916, refcount: 3>
  <sparsity:(TM [ 0,--,--] of: ../elec-z/elec-z.TSHS)
    nrows_g=36 nrows=36 sparsity=1.0000 nnzs=1296, refcount: 3>
  <sparsity:(TM [-1,--,--] of: ../elec-z/elec-z.TSHS)
    nrows_g=36 nrows=36 sparsity=.6250 nnzs=810, refcount: 3>
 el-3 principal cell is perfect!

Calculating all surface Green functions for: el-3
 Fermi level shift in electrode (chemical potential) :        0.00000  eV
 Atoms available    / used atoms   :      4 /      4
 Orbitals available / used orbitals:     36 /     36
 Total self-energy calculations: 62
 Saving surface Green functions in: term3.TSGFel-3
 Estimated file size:      1.266 MB
 Lopez Sancho, Lopez Sancho & Rubio recursive surface self-energy calculation...
 Lopez Sancho, Lopez Sancho & Rubio: Mean/std iterations:     4.8387 /     1.1804
 Lopez Sancho, Lopez Sancho & Rubio: Min/Max iterations :          4 /         10
Done creating 'term3.TSGFel-3'.

  <sparsity:../elec-z/elec-z.TSHS
    nrows_g=36 nrows=36 sparsity=2.2500 nnzs=2916, refcount: 3>
  <sparsity:(TM [ 0,--,--] of: ../elec-z/elec-z.TSHS)
    nrows_g=36 nrows=36 sparsity=1.0000 nnzs=1296, refcount: 3>
  <sparsity:(TM [ 1,--,--] of: ../elec-z/elec-z.TSHS)
    nrows_g=36 nrows=36 sparsity=.6250 nnzs=810, refcount: 3>
 el-4 principal cell is perfect!

Calculating all surface Green functions for: el-4
 Fermi level shift in electrode (chemical potential) :        0.00000  eV
 Atoms available    / used atoms   :      4 /      4
 Orbitals available / used orbitals:     36 /     36
 Total self-energy calculations: 62
 Saving surface Green functions in: term3.TSGFel-4
 Estimated file size:      1.266 MB
 Lopez Sancho, Lopez Sancho & Rubio recursive surface self-energy calculation...
 Lopez Sancho, Lopez Sancho & Rubio: Mean/std iterations:     4.8387 /     1.1804
 Lopez Sancho, Lopez Sancho & Rubio: Min/Max iterations :          4 /         10
Done creating 'term3.TSGFel-4'.


                     ====================================
                        Single-point calculation
                     ====================================

superc: Internal auxiliary supercell:     1 x     1 x     3  =       3
superc: Number of atoms, orbitals, and projectors:    129   1161   1161

outcell: Unit cell vectors (Ang):
       31.750000    0.000000    0.000000
        0.000000   12.000000    0.000000
        0.000000    0.000000   31.750000

outcell: Cell vector modules (Ang)   :   31.750000   12.000000   31.750000
outcell: Cell angles (23,13,12) (deg):     90.0000     90.0000     90.0000
outcell: Cell volume (Ang**3)        :  12096.7500
<dSpData1D:S at geom step 0
  <sparsity:sparsity for geom step 0
    nrows_g=387 nrows=51 sparsity=.0309 nnzs=4626, refcount: 7>
  <dData1D:(new from dSpData1D) n=4626, refcount: 1>
refcount: 1>
new_DM -- step:     1
Initializing Density Matrix...

Attempting to read DM, EDM from TSDE file... Failed...
Attempting to read DM from file... Failed...
DM filled with atomic data:
<dSpData2D:DM initialized from atoms
  <sparsity:sparsity for geom step 0
    nrows_g=387 nrows=51 sparsity=.0309 nnzs=4626, refcount: 8>
  <dData2D:DM n=4626 m=1, refcount: 1>
refcount: 1>

transiesta: Initialization run using siesta


No. of atoms with KB's overlaping orbs in proc 0. Max # of overlaps:      18      72
New grid distribution:   1
           1       1:  160    1:   30    1:   40
           2       1:  160    1:   30   41:   80
           3       1:  160    1:   30   81:  120
           4       1:  160    1:   30  121:  160
           5       1:  160   31:   60    1:   40
           6       1:  160   31:   60   41:   80
           7       1:  160   31:   60   81:  120
           8       1:  160   31:   60  121:  160

InitMesh: MESH =   320 x   120 x   320 =    12288000
InitMesh: (bp) =   160 x    60 x   160 =     1536000
InitMesh: Mesh cutoff (required, used) =   250.000   276.377 Ry
ExtMesh (bp) on 0 =   212 x    82 x    92 =     1599328
New grid distribution:   2
           1       1:   81    1:   60    1:   73
           2      82:  160    1:   60   62:   82
           3       1:   81    1:   60   83:   90
           4      82:  160    1:   60  102:  160
           5      82:  160    1:   60    1:   61
           6       1:   81    1:   60   74:   82
           7      82:  160    1:   60   83:  101
           8       1:   81    1:   60   91:  160
New grid distribution:   3
           1       1:   81    1:   60    1:   71
           2      82:  160    1:   60   62:   82
           3       1:   80    1:   60   83:   92
           4      81:  160    1:   60  103:  160
           5      82:  160    1:   60    1:   61
           6       1:   81    1:   60   72:   82
           7      81:  160    1:   60   83:  102
           8       1:   80    1:   60   93:  160
Setting up quadratic distribution...
ExtMesh (bp) on 0 =   133 x   112 x   125 =     1862000
PhiOnMesh: Number of (b)points on node 0 =               354780
PhiOnMesh: nlist on node 0 =               493395

ts: Using electrode: el-1 for Hartree correction
ts: Number of points used: 38400

ts-Vha: -0.23317E-06 eV

stepf: Fermi-Dirac step function
ts-Vha:  0.11598E+01 eV

siesta: Program's energy decomposition (eV):
siesta: Ebs     =     -2932.977160
siesta: Eions   =     10719.254325
siesta: Ena     =      2174.236270
siesta: Ekin    =      4285.824293
siesta: Enl     =      -533.376750
siesta: Eso     =         0.000000
siesta: Eldau   =         0.000000
siesta: DEna    =       128.224714
siesta: DUscf   =        18.254255
siesta: DUext   =         0.000000
siesta: Exc     =     -1906.780060
siesta: eta*DQ  =         0.000000
siesta: Emadel  =         0.000000
siesta: Emeta   =         0.000000
siesta: Emolmec =         0.000000
siesta: Ekinion =         0.000000
siesta: Eharris =     -6567.418309
siesta: Etot    =     -6552.871603
siesta: FreeEng =     -6552.872699

        iscf     Eharris(eV)        E_KS(eV)     FreeEng(eV)     dDmax    Ef(eV) dHmax(eV)
   scf:    1    -6567.418309    -6552.871603    -6552.872699  1.549701 -5.997026  9.888680
timer: Routine,Calls,Time,% = IterSCF        1       4.103  64.86
ts-Vha:  0.73428E+00 eV
   scf:    2    -6559.373216    -6556.618084    -6556.618952  0.062011 -6.135581  5.777477
ts-Vha:  0.16275E+00 eV
   scf:    3    -6559.162692    -6558.662221    -6558.663426  0.082584 -6.348060  2.162254
ts-Vha:  0.11046E+00 eV
   scf:    4    -6559.195933    -6559.022658    -6559.024057  0.027382 -6.479665  1.241659
ts-Vha:  0.47917E-01 eV
   scf:    5    -6558.985215    -6559.051051    -6559.052756  0.030164 -6.657215  1.356676
ts-Vha:  0.20706E+00 eV
   scf:    6    -6559.133254    -6559.148433    -6559.150214  0.024218 -6.789741  0.730286
ts-Vha:  0.59179E-01 eV
   scf:    7    -6559.054542    -6559.132557    -6559.140609  0.020489 -6.936259  0.862241
ts-Vha:  0.17678E+00 eV
   scf:    8    -6559.170324    -6559.172006    -6559.175739  0.013111 -6.973263  0.541421
ts-Vha:  0.75175E-01 eV
   scf:    9    -6559.105619    -6559.154262    -6559.169178  0.026373 -7.034146  0.572900
ts-Vha:  0.18731E+00 eV
   scf:   10    -6559.179750    -6559.186451    -6559.192036  0.025035 -7.049739  0.286878
ts-Vha:  0.16360E+00 eV
   scf:   11    -6559.188038    -6559.188140    -6559.195900  0.004304 -7.063136  0.127795
ts-Vha:  0.14643E+00 eV
   scf:   12    -6559.187965    -6559.188543    -6559.197218  0.003326 -7.069720  0.068382
ts-Vha:  0.14851E+00 eV
   scf:   13    -6559.193818    -6559.191446    -6559.198875  0.002922 -7.077783  0.044700
ts-Vha:  0.14861E+00 eV
   scf:   14    -6559.193647    -6559.192572    -6559.199277  0.001453 -7.077980  0.031469
ts-Vha:  0.14858E+00 eV
   scf:   15    -6559.193947    -6559.193270    -6559.199477  0.001103 -7.079089  0.022272
ts-Vha:  0.15113E+00 eV
   scf:   16    -6559.194517    -6559.193916    -6559.199590  0.001226 -7.085397  0.015236
ts-Vha:  0.15015E+00 eV
   scf:   17    -6559.194007    -6559.193963    -6559.199609  0.000246 -7.087649  0.009762
ts-Vha:  0.14989E+00 eV
   scf:   18    -6559.194075    -6559.194020    -6559.199617  0.000102 -7.088989  0.007996
ts-Vha:  0.15014E+00 eV
   scf:   19    -6559.194243    -6559.194132    -6559.199627  0.000177 -7.090576  0.004784
ts-Vha:  0.15014E+00 eV
   scf:   20    -6559.194235    -6559.194184    -6559.199630  0.000117 -7.090894  0.002495
ts-Vha:  0.15012E+00 eV
   scf:   21    -6559.194265    -6559.194225    -6559.199631  0.000077 -7.091004  0.001163
ts-Vha:  0.15014E+00 eV
   scf:   22    -6559.194249    -6559.194237    -6559.199631  0.000025 -7.091109  0.001061
ts-Vha:  0.15015E+00 eV
   scf:   23    -6559.194233    -6559.194235    -6559.199631  0.000017 -7.091255  0.000879

SCF Convergence by DM+H criterion
max |DM_out - DM_in|         :     0.0000166174
max |H_out - H_in|      (eV) :     0.0008786312
SCF cycle converged after 23 iterations

                     ***************************
                     *  WELCOME TO TRANSIESTA  *
                     ***************************

ts-Vha:  0.15015E+00 eV

Created the TranSIESTA H,S sparsity pattern.
  <sparsity:(M of: G ((UC of: T T T T T sparsity for geom step 0)))
    nrows_g=387 nrows=387 sparsity=.2040 nnzs=30555, refcount: 2>

TranSIESTA global update sparsity pattern same as H,S

transiesta: Determining an optimal tri-matrix using: atom+GPS
transiesta: Established a near-optimal partition for the tri-diagonal matrix.
BTD partitions (6): 
  [ 45, 36, 63, 108, 99, 36 ]
transiesta: Matrix elements in tri / full: 79947 / 149769

transiesta: mem of electrodes (static):                     0.06MB
transiesta: mem of global update arrays (static):           0.93MB
transiesta: mem of tri-diagonal matrices:                   2.44MB
transiesta: Total memory usage:                             3.43MB

transiesta: Charge distribution, target =    172.00000
Total charge                  [Q]  :   172.00000
Device                        [D]  :   121.88450
el-1                          [E1] :    15.35993
el-1                 / device [C1] :     1.38023
el-3                          [E2] :    14.59695
el-3                 / device [C2] :     1.39383
el-4                          [E3] :    14.59681
el-4                 / device [C3] :     1.39388
Other                         [O]  :     1.39387

ts-q:         D        E1        C1        E2        C2        E3        C3        dQ
ts-q:   122.248    15.360     1.373    14.597     1.398    14.597     1.398  3.640E-1
ts-Vha: -0.33683E-01 eV

siesta: Program's energy decomposition (eV):
siesta: Ebs     =     -2497.058944
siesta: Eions   =     10719.254325
siesta: Ena     =      2174.236270
siesta: Ekin    =      4308.068264
siesta: Enl     =      -536.743324
siesta: Eso     =         0.000000
siesta: Eldau   =         0.000000
siesta: DEna    =       115.079329
siesta: DUscf   =         9.823830
siesta: DUext   =         0.000000
siesta: Exc     =     -1912.801023
siesta: eta*DQ  =         0.000000
siesta: Emadel  =         0.000000
siesta: Emeta   =         0.000000
siesta: Emolmec =         0.000000
siesta: Ekinion =         0.000000
siesta: Eharris =     -6563.771639
siesta: Etot    =     -6561.590981
siesta: FreeEng =     -6561.590981

        iscf     Eharris(eV)        E_KS(eV)     FreeEng(eV)     dDmax    Ef(eV) dHmax(eV)
ts-scf:    1    -6563.771639    -6561.590981    -6561.590981  0.167240 -7.091255  0.992476
timer: Routine,Calls,Time,% = TS             1       0.226   0.37
ts-q:         D        E1        C1        E2        C2        E3        C3        dQ
ts-q:   122.008    15.360     1.371    14.597     1.395    14.597     1.395  1.165E-1
ts-Vha:  0.91387E-01 eV
ts-scf:    2    -6557.639995    -6559.652965    -6559.652965  0.009449 -7.091255  0.390674
ts-q:         D        E1        C1        E2        C2        E3        C3        dQ
ts-q:   121.926    15.360     1.371    14.597     1.393    14.597     1.393  3.045E-2
ts-Vha:  0.13042E+00 eV
ts-scf:    3    -6558.192930    -6558.932202    -6558.932202  0.006026 -7.091255  0.263400
ts-q:         D        E1        C1        E2        C2        E3        C3        dQ
ts-q:   121.908    15.360     1.372    14.597     1.393    14.597     1.393  1.272E-2
ts-Vha:  0.13482E+00 eV
ts-scf:    4    -6558.616170    -6558.777366    -6558.777366  0.008697 -7.091255  0.172307
ts-q:         D        E1        C1        E2        C2        E3        C3        dQ
ts-q:   121.909    15.360     1.376    14.597     1.393    14.597     1.393  1.871E-2
ts-Vha:  0.13487E+00 eV
ts-scf:    5    -6559.012608    -6558.896407    -6558.896407  0.009534 -7.091255  0.097759
ts-q:         D        E1        C1        E2        C2        E3        C3        dQ
ts-q:   121.908    15.360     1.379    14.597     1.393    14.597     1.393  2.123E-2
ts-Vha:  0.13466E+00 eV
ts-scf:    6    -6559.031878    -6558.964388    -6558.964388  0.004823 -7.091255  0.043481
ts-q:         D        E1        C1        E2        C2        E3        C3        dQ
ts-q:   121.906    15.360     1.380    14.597     1.393    14.597     1.393  1.974E-2
ts-Vha:  0.13581E+00 eV
ts-scf:    7    -6558.958827    -6558.961730    -6558.961730  0.000999 -7.091255  0.028770
ts-q:         D        E1        C1        E2        C2        E3        C3        dQ
ts-q:   121.906    15.360     1.381    14.597     1.393    14.597     1.393  2.086E-2
ts-Vha:  0.13572E+00 eV
ts-scf:    8    -6559.018552    -6558.990085    -6558.990085  0.001505 -7.091255  0.019095
ts-q:         D        E1        C1        E2        C2        E3        C3        dQ
ts-q:   121.906    15.360     1.382    14.597     1.393    14.597     1.393  2.079E-2
ts-Vha:  0.13578E+00 eV
ts-scf:    9    -6558.996321    -6558.993208    -6558.993208  0.000279 -7.091255  0.015475
ts-q:         D        E1        C1        E2        C2        E3        C3        dQ
ts-q:   121.906    15.360     1.382    14.597     1.393    14.597     1.393  2.069E-2
ts-Vha:  0.13580E+00 eV
ts-scf:   10    -6559.000434    -6558.996834    -6558.996834  0.000538 -7.091255  0.006881
ts-q:         D        E1        C1        E2        C2        E3        C3        dQ
ts-q:   121.906    15.360     1.382    14.597     1.393    14.597     1.393  2.073E-2
ts-Vha:  0.13578E+00 eV
ts-scf:   11    -6558.998494    -6558.997664    -6558.997664  0.000383 -7.091255  0.003026
ts-q:         D        E1        C1        E2        C2        E3        C3        dQ
ts-q:   121.906    15.360     1.382    14.597     1.393    14.597     1.393  2.068E-2
ts-Vha:  0.13579E+00 eV
ts-scf:   12    -6558.996030    -6558.996850    -6558.996850  0.000040 -7.091255  0.002820
ts-q:         D        E1        C1        E2        C2        E3        C3        dQ
ts-q:   121.906    15.360     1.381    14.597     1.393    14.597     1.393  2.055E-2
ts-Vha:  0.13580E+00 eV
ts-scf:   13    -6558.992624    -6558.994745    -6558.994745  0.000084 -7.091255  0.001920
ts-q:         D        E1        C1        E2        C2        E3        C3        dQ
ts-q:   121.906    15.360     1.381    14.597     1.393    14.597     1.393  2.058E-2
ts-Vha:  0.13578E+00 eV
ts-scf:   14    -6558.995407    -6558.995074    -6558.995074  0.000095 -7.091255  0.000328

SCF Convergence by DM+H criterion
max |DM_out - DM_in|         :     0.0000950936
max |H_out - H_in|      (eV) :     0.0003281796
SCF cycle converged after 14 iterations

Using DM_out to compute the final energy and forces
No. of atoms with KB's overlaping orbs in proc 0. Max # of overlaps:      18      72
ts-Vha:  0.13578E+00 eV

siesta: E_KS(eV) =            -6558.9951

siesta: E_KS - E_eggbox =     -6558.9951

siesta: Atomic forces (eV/Ang):
     1   -4.458410    0.000000   -0.000004
     2    0.827054    0.000000    0.000426
     3    0.804010   -0.000000    0.000946
     4   -0.221129    0.000000    0.000546
     5    0.279526    0.000000    0.000729
     6   -0.041576    0.000000    0.000711
     7    0.029560    0.000000    0.000540
     8   -0.019784    0.000000    0.000683
     9    0.012637   -0.000000    0.000546
    10   -0.087961   -0.000000    0.000711
    11   -0.860939    0.000000    0.002645
    12    8.815486   -0.000000   -0.007719
    13    0.000698    0.000000   -0.063999
    14    0.000533    0.000000    0.066896
    15    0.000725   -0.000000   -0.075705
    16    0.001413   -0.000000    0.045175
    17   -0.000205    0.000000    0.019096
    18    0.000721   -0.000000   -0.028053
    19    0.000261   -0.000000    0.037209
    20    0.001003    0.000000   -0.035318
    21    0.003330    0.000000    0.032759
    22    0.001737    0.000000   -0.112338
    23   -0.005974   -0.000000   -0.841871
    24   -0.056774   -0.000000    8.793835
    25   -0.033846    0.000000   -8.821422
    26   -0.007424   -0.000000    0.841612
    27    0.001746   -0.000000    0.115957
    28    0.003283   -0.000000   -0.036569
    29    0.001015    0.000000    0.046142
    30    0.000276    0.000000   -0.041681
    31    0.000730    0.000000    0.029035
    32   -0.000236    0.000000   -0.018385
    33    0.001397    0.000000   -0.049606
    34    0.000744    0.000000    0.086895
    35    0.000547   -0.000000   -0.071162
    36    0.000700    0.000000    0.065090
    37   -8.755240   -0.000000    0.015494
    38    1.036347   -0.000000    0.001196
    39   -0.215045   -0.000000    0.000818
    40    0.418328    0.000000    0.000495
    41   -1.057000   -0.000000    0.000325
    42   -0.867288   -0.000000    0.000628
    43    4.486664    0.000000    0.000445
----------------------------------------
   Tot    0.041639    0.000000    0.003753
----------------------------------------
   Max    8.821422
   Res    1.662148    sqrt( Sum f_i^2 / 3N )
----------------------------------------
   Max    8.821422    constrained

Stress-tensor-Voigt (kbar):       -7.54        0.00       -9.56        0.00        0.00       -0.01
(Free)E + p*V (eV/cell)    -6515.9823
Target enthalpy (eV/cell)    -6558.9951

mulliken: Atomic and Orbital Populations:

Species: C                   
Atom  Qatom  Qorb
               2s      2py     2pz     2px     2Pdxy   2Pdyz   2Pdz2   2Pdxz   
               2Pdx2-y2
   1  4.079   1.663   0.573   0.467   1.289   0.025   0.000   0.010   0.022
              0.030
   2  3.995   0.878   1.039   0.989   1.056   0.011   0.000   0.004   0.006
              0.013
   3  3.962   0.938   0.955   0.895   1.112   0.027  -0.000   0.003   0.023
              0.010
   4  4.014   0.880   1.036   0.984   1.070   0.015   0.000   0.004   0.013
              0.012
   5  3.989   0.894   0.983   0.984   1.083   0.015  -0.000   0.004   0.016
              0.012
   6  3.995   0.900   0.978   0.979   1.086   0.017  -0.000   0.004   0.018
              0.012
   7  4.000   0.896   0.985   0.985   1.083   0.017  -0.000   0.004   0.016
              0.012
   8  3.997   0.901   0.978   0.978   1.087   0.018  -0.000   0.004   0.019
              0.012
   9  4.001   0.896   0.987   0.987   1.082   0.017  -0.000   0.004   0.015
              0.012
  10  3.996   0.907   0.974   0.973   1.090   0.017  -0.000   0.004   0.020
              0.011
  11  3.980   0.885   0.983   0.981   1.074   0.024   0.000   0.007   0.011
              0.014
  12  4.020   1.096   0.938   0.869   1.033   0.017   0.004   0.008   0.044
              0.011
  13  3.998   0.899   0.986   1.085   0.977   0.000   0.018   0.016   0.017
              0.000
  14  3.998   0.899   0.986   1.085   0.977   0.000   0.018   0.016   0.017
              0.000
  15  3.998   0.898   0.986   1.085   0.978   0.000   0.018   0.016   0.017
              0.000
  16  3.997   0.900   0.989   1.085   0.972   0.000   0.017   0.016   0.018
              0.000
  17  4.001   0.898   0.981   1.085   0.985  -0.000   0.018   0.017   0.017
             -0.000
  18  3.998   0.900   0.983   1.086   0.978  -0.000   0.017   0.016   0.018
             -0.000
  19  4.000   0.898   0.981   1.084   0.986  -0.000   0.018   0.016   0.016
             -0.000
  20  3.998   0.900   0.983   1.086   0.976  -0.000   0.017   0.016   0.019
             -0.000
  21  4.000   0.897   0.982   1.083   0.989  -0.000   0.018   0.016   0.015
             -0.000
  22  3.997   0.906   0.979   1.089   0.972  -0.000   0.016   0.015   0.020
             -0.000
  23  3.979   0.887   0.977   1.075   0.983   0.000   0.025   0.021   0.011
              0.000
  24  4.020   1.095   0.944   1.032   0.868   0.003   0.016   0.017   0.044
              0.001
  25  4.020   1.095   0.944   1.032   0.868   0.003   0.016   0.017   0.044
              0.001
  26  3.979   0.887   0.977   1.075   0.983   0.000   0.025   0.021   0.011
              0.000
  27  3.997   0.906   0.979   1.089   0.972  -0.000   0.016   0.015   0.020
             -0.000
  28  4.000   0.897   0.982   1.083   0.988  -0.000   0.018   0.016   0.015
             -0.000
  29  3.998   0.900   0.983   1.086   0.976  -0.000   0.017   0.016   0.019
             -0.000
  30  4.000   0.898   0.981   1.084   0.986  -0.000   0.018   0.016   0.016
             -0.000
  31  3.998   0.900   0.983   1.086   0.978  -0.000   0.017   0.016   0.018
             -0.000
  32  4.001   0.898   0.981   1.085   0.985  -0.000   0.018   0.017   0.017
             -0.000
  33  3.997   0.900   0.989   1.085   0.972   0.000   0.017   0.016   0.018
              0.000
  34  3.998   0.898   0.986   1.085   0.978   0.000   0.018   0.016   0.017
              0.000
  35  3.998   0.899   0.986   1.085   0.977   0.000   0.018   0.016   0.017
              0.000
  36  3.998   0.899   0.986   1.085   0.977   0.000   0.018   0.016   0.017
              0.000
  37  4.007   1.108   0.892   0.874   1.043   0.017   0.004   0.008   0.049
              0.011
  38  3.987   0.872   0.973   1.029   1.064   0.018   0.000   0.007   0.009
              0.014
  39  3.981   0.923   0.919   0.977   1.102   0.019  -0.000   0.004   0.027
              0.011
  40  4.011   0.876   0.984   1.046   1.068   0.008  -0.000   0.004   0.012
              0.012
  41  3.965   0.942   0.888   0.958   1.114   0.022  -0.000   0.003   0.028
              0.009
  42  3.996   0.876   0.984   1.048   1.055   0.005  -0.000   0.004   0.011
              0.013
  43  4.078   1.666   0.450   0.584   1.292   0.022  -0.000   0.010   0.025
              0.030

mulliken: Qtot =      172.021

siesta: Program's energy decomposition (eV):
siesta: Ebs     =     -2594.191084
siesta: Eions   =     10719.254325
siesta: Ena     =      2174.236270
siesta: Ekin    =      4296.394496
siesta: Enl     =      -534.241115
siesta: Eso     =         0.000000
siesta: Eldau   =         0.000000
siesta: DEna    =       121.859773
siesta: DUscf   =        10.070995
siesta: DUext   =         0.000000
siesta: Exc     =     -1908.061167
siesta: eta*DQ  =         0.000000
siesta: Emadel  =         0.000000
siesta: Emeta   =         0.000000
siesta: Emolmec =         0.000000
siesta: Ekinion =         0.000000
siesta: Eharris =     -6558.995407
siesta: Etot    =     -6558.995074
siesta: FreeEng =     -6558.995074

siesta: Final energy (eV):
siesta:  Band Struct. =   -2594.191084
siesta:       Kinetic =    4296.394496
siesta:       Hartree =   17356.583595
siesta:       Eldau   =       0.000000
siesta:       Eso     =       0.000000
siesta:    Ext. field =       0.000000
siesta:   Exch.-corr. =   -1908.061167
siesta:  Ion-electron =  -39109.841397
siesta:       Ion-ion =   12805.929399
siesta:       Ekinion =       0.000000
siesta:         Total =   -6558.995074
siesta:         Fermi =      -7.091255

siesta: Atomic forces (eV/Ang):
siesta:      1   -4.458410    0.000000   -0.000004
siesta:      2    0.827054    0.000000    0.000426
siesta:      3    0.804010   -0.000000    0.000946
siesta:      4   -0.221129    0.000000    0.000546
siesta:      5    0.279526    0.000000    0.000729
siesta:      6   -0.041576    0.000000    0.000711
siesta:      7    0.029560    0.000000    0.000540
siesta:      8   -0.019784    0.000000    0.000683
siesta:      9    0.012637   -0.000000    0.000546
siesta:     10   -0.087961   -0.000000    0.000711
siesta:     11   -0.860939    0.000000    0.002645
siesta:     12    8.815486   -0.000000   -0.007719
siesta:     13    0.000698    0.000000   -0.063999
siesta:     14    0.000533    0.000000    0.066896
siesta:     15    0.000725   -0.000000   -0.075705
siesta:     16    0.001413   -0.000000    0.045175
siesta:     17   -0.000205    0.000000    0.019096
siesta:     18    0.000721   -0.000000   -0.028053
siesta:     19    0.000261   -0.000000    0.037209
siesta:     20    0.001003    0.000000   -0.035318
siesta:     21    0.003330    0.000000    0.032759
siesta:     22    0.001737    0.000000   -0.112338
siesta:     23   -0.005974   -0.000000   -0.841871
siesta:     24   -0.056774   -0.000000    8.793835
siesta:     25   -0.033846    0.000000   -8.821422
siesta:     26   -0.007424   -0.000000    0.841612
siesta:     27    0.001746   -0.000000    0.115957
siesta:     28    0.003283   -0.000000   -0.036569
siesta:     29    0.001015    0.000000    0.046142
siesta:     30    0.000276    0.000000   -0.041681
siesta:     31    0.000730    0.000000    0.029035
siesta:     32   -0.000236    0.000000   -0.018385
siesta:     33    0.001397    0.000000   -0.049606
siesta:     34    0.000744    0.000000    0.086895
siesta:     35    0.000547   -0.000000   -0.071162
siesta:     36    0.000700    0.000000    0.065090
siesta:     37   -8.755240   -0.000000    0.015494
siesta:     38    1.036347   -0.000000    0.001196
siesta:     39   -0.215045   -0.000000    0.000818
siesta:     40    0.418328    0.000000    0.000495
siesta:     41   -1.057000   -0.000000    0.000325
siesta:     42   -0.867288   -0.000000    0.000628
siesta:     43    4.486664    0.000000    0.000445
siesta: ----------------------------------------
siesta:    Tot    0.041639    0.000000    0.003753

siesta: Stress tensor (static) (eV/Ang**3):
siesta:    -0.004703    0.000000   -0.000004
siesta:     0.000000    0.000001    0.000000
siesta:    -0.000004    0.000000   -0.005965

siesta: Cell volume =      12096.750000 Ang**3

siesta: Pressure (static):
siesta:                Solid            Molecule  Units
siesta:           0.00003873          0.00002662  Ry/Bohr**3
siesta:           0.00355573          0.00244434  eV/Ang**3
siesta:           5.69696319          3.91630581  kBar
(Free)E+ p_basis*V_orbitals  =       -6548.843078
(Free)Eharris+ p_basis*V_orbitals  =       -6548.843410

siesta: Electric dipole (a.u.)  =    0.298385    0.000000    0.000000
siesta: Electric dipole (Debye) =    0.758419    0.000000    0.000000
>> End of run:   2-JUL-2017  23:03:30
Job completed
