Siesta Version  : trunk-755
Architecture    : unknown
Compiler version: GNU Fortran (Ubuntu 5.4.0-6ubuntu1~16.04.10) 5.4.0 20160609
Compiler flags  : mpif90 -O2 -fPIC -ftree-vectorize
PP flags        : -DFC_HAVE_ABORT -DMPI -DFC_HAVE_FLUSH -DFC_HAVE_ABORT -DGRID_DP -DPHI_GRID_SP -DSIESTA__HAS__SPGLIB  -DSIESTA__DIAG_2STAGE
Libraries       : libsiestaLAPACK.a libsiestaBLAS.a libfdict.a  /usr/lib/libscalapack-openmpi.so   libsiestaLAPACK.a libsiestaBLAS.a libfdict.a /usr/lib/libblacsF77init-openmpi.so /usr/lib/libblacsCinit-openmpi.so /usr/lib/libblacs-openmpi.so
Directory       : /home/ICN2/aakhtar/Projects/spglib-inclusion/Obj-spg/Tests/Space_Group/06-cubic-cP.28-spg222/work
PARALLEL version

* Running on 8 nodes in parallel
>> Start of run:   2-APR-2019  17:13:39

                           ***********************       
                           *  WELCOME TO SIESTA  *       
                           ***********************       

reinit: Reading from ../06-cubic-cP.28-spg222.fdf

reinit: -----------------------------------------------------------------------
reinit: System Name: 
reinit: -----------------------------------------------------------------------
reinit: System Label: 06-cubic-cP.28-spg222.inp
reinit: -----------------------------------------------------------------------

initatom: Reading input for the pseudopotentials and atomic orbitals ----------
Species number:   1 Atomic number:    1 Label: H

Ground state valence configuration:   1s01
Reading pseudopotential information in formatted form from H.psf

Valence configuration for pseudopotential generation:
1s( 1.00) rc: 1.25
2p( 0.00) rc: 1.25
3d( 0.00) rc: 1.25
4f( 0.00) rc: 1.25
For H, standard SIESTA heuristics set lmxkb to 2
 (one more than the basis l, including polarization orbitals).
Use PS.lmax or PS.KBprojectors blocks to override.

<basis_specs>
===============================================================================
H                    Z=   1    Mass=  1.0100        Charge= 0.17977+309
Lmxo=0 Lmxkb= 2    BasisType=split      Semic=F
L=0  Nsemic=0  Cnfigmx=1
          n=1  nzeta=2  polorb=1
            splnorm:   0.15000    
               vcte:    0.0000    
               rinn:    0.0000    
               qcoe:    0.0000    
               qyuk:    0.0000    
               qwid:   0.10000E-01
                rcs:    0.0000      0.0000    
            lambdas:    1.0000      1.0000    
-------------------------------------------------------------------------------
L=0  Nkbl=1  erefs: 0.17977+309
L=1  Nkbl=1  erefs: 0.17977+309
L=2  Nkbl=1  erefs: 0.17977+309
===============================================================================
</basis_specs>

atom: Called for H                     (Z =   1)

read_vps: Pseudopotential generation method:
read_vps: ATM3      Troullier-Martins                       
Total valence charge:    1.00000

xc_check: Exchange-correlation functional:
xc_check: Ceperley-Alder
V l=0 = -2*Zval/r beyond r=  1.2343
V l=1 = -2*Zval/r beyond r=  1.2189
V l=2 = -2*Zval/r beyond r=  1.2189
All V_l potentials equal beyond r=  1.2343
This should be close to max(r_c) in ps generation
All pots = -2*Zval/r beyond r=  1.2343

VLOCAL1: 99.0% of the norm of Vloc inside     28.493 Ry
VLOCAL1: 99.9% of the norm of Vloc inside     64.935 Ry
atom: Maximum radius for 4*pi*r*r*local-pseudopot. charge    1.45251
atom: Maximum radius for r*vlocal+2*Zval:    1.21892

KBgen: Kleinman-Bylander projectors: 
GHOST: No ghost state for L =  0
   l= 0   rc=  1.364359   el= -0.467325   Ekb= -2.005361   kbcos= -0.336422
GHOST: No ghost state for L =  1
   l= 1   rc=  1.434438   el=  0.001430   Ekb= -0.501708   kbcos= -0.021697
GHOST: No ghost state for L =  2
   l= 2   rc=  1.470814   el=  0.002365   Ekb= -0.190555   kbcos= -0.002281

KBgen: Total number of  Kleinman-Bylander projectors:    9
atom: -------------------------------------------------------------------------

atom: SANKEY-TYPE ORBITALS:
atom: Selected multiple-zeta basis: split     

SPLIT: Orbitals with angular momentum L= 0

SPLIT: Basis orbitals for state 1s

SPLIT: PAO cut-off radius determined from an
SPLIT: energy shift=  0.020000 Ry

   izeta = 1
                 lambda =    1.000000
                     rc =    4.828263
                 energy =   -0.449375
                kinetic =    0.929372
    potential(screened) =   -1.378747
       potential(ionic) =   -1.915047

   izeta = 2
                 rmatch =    3.854947
              splitnorm =    0.150000
                 energy =   -0.336153
                kinetic =    1.505294
    potential(screened) =   -1.841447
       potential(ionic) =   -2.413582

POLgen: Perturbative polarization orbital with L=  1

POLgen: Polarization orbital for state 1s

   izeta = 1
                     rc =    4.828263
                 energy =    0.706972
                kinetic =    1.396397
    potential(screened) =   -0.689424
       potential(ionic) =   -1.169792
atom: Total number of Sankey-type orbitals:  5

atm_pop: Valence configuration (for local Pseudopot. screening):
 1s( 1.00)                                                            
Vna: chval, zval:    1.00000   1.00000

Vna:  Cut-off radius for the neutral-atom potential:   4.828263

atom: _________________________________________________________________________

prinput: Basis input ----------------------------------------------------------

PAO.BasisType split     

%block ChemicalSpeciesLabel
    1    1 H                       # Species index, atomic number, species label
%endblock ChemicalSpeciesLabel

%block PAO.Basis                 # Define Basis set
H                     1                    # Species label, number of l-shells
 n=1   0   2 P   1                   # n, l, Nzeta, Polarization, NzetaPol
   4.828      3.855   
   1.000      1.000   
%endblock PAO.Basis

prinput: ----------------------------------------------------------------------

coor:   Atomic-coordinates input format  =     Fractional

siesta: Atomic coordinates (Bohr) and species
siesta:      2.57003   2.26767   1.66296  1        1
siesta:      1.66296   2.57003   2.26767  1        2
siesta:      4.98888   5.29124   1.66296  1        3
siesta:      4.98888   2.26767   5.89595  1        4
siesta:      2.26767   2.57003   5.89595  1        5
siesta:      2.26767   1.66296   2.57003  1        6
siesta:      1.66296   4.98888   5.29124  1        7
siesta:      5.89595   4.98888   2.26767  1        8
siesta:      5.89595   2.26767   2.57003  1        9
siesta:      2.57003   5.29124   5.89595  1       10
siesta:      5.29124   4.98888   5.89595  1       11
siesta:      5.89595   2.57003   5.29124  1       12
siesta:      5.29124   2.57003   1.66296  1       13
siesta:      2.57003   1.66296   5.29124  1       14
siesta:      2.26767   4.98888   1.66296  1       15
siesta:      5.29124   1.66296   4.98888  1       16
siesta:      2.26767   5.89595   4.98888  1       17
siesta:      2.57003   5.89595   2.26767  1       18
siesta:      5.89595   5.29124   4.98888  1       19
siesta:      5.29124   5.89595   2.57003  1       20
siesta:      1.66296   5.29124   2.57003  1       21
siesta:      1.66296   2.26767   4.98888  1       22
siesta:      4.98888   5.89595   5.29124  1       23
siesta:      4.98888   1.66296   2.26767  1       24
siesta:     12.54779  12.85014  13.45486  1       25
siesta:     13.45486  12.54779  12.85014  1       26
siesta:     10.12894   9.82658  13.45486  1       27
siesta:     10.12894  12.85014   9.22187  1       28
siesta:     12.85014  12.54779   9.22187  1       29
siesta:     12.85014  13.45486  12.54779  1       30
siesta:     13.45486  10.12894   9.82658  1       31
siesta:      9.22187  10.12894  12.85014  1       32
siesta:      9.22187  12.85014  12.54779  1       33
siesta:     12.54779   9.82658   9.22187  1       34
siesta:      9.82658  10.12894   9.22187  1       35
siesta:      9.22187  12.54779   9.82658  1       36
siesta:      9.82658  12.54779  13.45486  1       37
siesta:     12.54779  13.45486   9.82658  1       38
siesta:     12.85014  10.12894  13.45486  1       39
siesta:      9.82658  13.45486  10.12894  1       40
siesta:     12.85014   9.22187  10.12894  1       41
siesta:     12.54779   9.22187  12.85014  1       42
siesta:      9.22187   9.82658  10.12894  1       43
siesta:      9.82658   9.22187  12.54779  1       44
siesta:     13.45486   9.82658  12.54779  1       45
siesta:     13.45486  12.85014  10.12894  1       46
siesta:     10.12894   9.22187   9.82658  1       47
siesta:     10.12894  13.45486  12.85014  1       48

siesta: System type = bulk      

initatomlists: Number of atoms, orbitals, and projectors:     48   240   432

----------------------------------------------------------------------
 Output of crystal symmetries 

 Int Sp Group number =    222
 Int Sp Group symbol = Pn-3n      
 Bravais lattice is    221  Pm-3m      
 Hall number =    518

 number of symops =     48
 symops and translations in reduced coordinates = 
     1     0     0
     0     1     0
     0     0     1
    0.0000000000E+00      0.0000000000E+00      0.0000000000E+00

     0     1     0
    -1     0     0
     0     0     1
    0.5000000000E+00      0.0000000000E+00      0.0000000000E+00

    -1     0     0
     0    -1     0
     0     0     1
    0.5000000000E+00      0.5000000000E+00      0.0000000000E+00

     0    -1     0
     1     0     0
     0     0     1
    0.0000000000E+00      0.5000000000E+00      0.0000000000E+00

     1     0     0
     0    -1     0
     0     0    -1
    0.0000000000E+00      0.5000000000E+00      0.5000000000E+00

     0    -1     0
    -1     0     0
     0     0    -1
    0.5000000000E+00      0.5000000000E+00      0.5000000000E+00

    -1     0     0
     0     1     0
     0     0    -1
    0.5000000000E+00      0.0000000000E+00      0.5000000000E+00

     0     1     0
     1     0     0
     0     0    -1
    0.0000000000E+00      0.0000000000E+00      0.5000000000E+00

     0     1     0
     0     0     1
     1     0     0
    0.0000000000E+00      0.0000000000E+00      0.0000000000E+00

     0     0     1
     0    -1     0
     1     0     0
    0.0000000000E+00      0.5000000000E+00      0.0000000000E+00

     0    -1     0
     0     0    -1
     1     0     0
    0.0000000000E+00      0.5000000000E+00      0.5000000000E+00

     0     0    -1
     0     1     0
     1     0     0
    0.0000000000E+00      0.0000000000E+00      0.5000000000E+00

     0     1     0
     0     0    -1
    -1     0     0
    0.5000000000E+00      0.0000000000E+00      0.5000000000E+00

     0     0    -1
     0    -1     0
    -1     0     0
    0.5000000000E+00      0.5000000000E+00      0.5000000000E+00

     0    -1     0
     0     0     1
    -1     0     0
    0.5000000000E+00      0.5000000000E+00      0.0000000000E+00

     0     0     1
     0     1     0
    -1     0     0
    0.5000000000E+00      0.0000000000E+00      0.0000000000E+00

     0     0     1
     1     0     0
     0     1     0
    0.0000000000E+00      0.0000000000E+00      0.0000000000E+00

     1     0     0
     0     0    -1
     0     1     0
    0.0000000000E+00      0.0000000000E+00      0.5000000000E+00

     0     0    -1
    -1     0     0
     0     1     0
    0.5000000000E+00      0.0000000000E+00      0.5000000000E+00

    -1     0     0
     0     0     1
     0     1     0
    0.5000000000E+00      0.0000000000E+00      0.0000000000E+00

     0     0     1
    -1     0     0
     0    -1     0
    0.5000000000E+00      0.5000000000E+00      0.0000000000E+00

    -1     0     0
     0     0    -1
     0    -1     0
    0.5000000000E+00      0.5000000000E+00      0.5000000000E+00

     0     0    -1
     1     0     0
     0    -1     0
    0.0000000000E+00      0.5000000000E+00      0.5000000000E+00

     1     0     0
     0     0     1
     0    -1     0
    0.0000000000E+00      0.5000000000E+00      0.0000000000E+00

    -1     0     0
     0    -1     0
     0     0    -1
    0.1110223025E-15      0.1110223025E-15      0.1110223025E-15

     0    -1     0
     1     0     0
     0     0    -1
    0.5000000000E+00      0.1110223025E-15      0.1110223025E-15

     1     0     0
     0     1     0
     0     0    -1
    0.5000000000E+00      0.5000000000E+00      0.1110223025E-15

     0     1     0
    -1     0     0
     0     0    -1
    0.1110223025E-15      0.5000000000E+00      0.1110223025E-15

    -1     0     0
     0     1     0
     0     0     1
    0.1110223025E-15      0.5000000000E+00      0.5000000000E+00

     0     1     0
     1     0     0
     0     0     1
    0.5000000000E+00      0.5000000000E+00      0.5000000000E+00

     1     0     0
     0    -1     0
     0     0     1
    0.5000000000E+00      0.1110223025E-15      0.5000000000E+00

     0    -1     0
    -1     0     0
     0     0     1
    0.1110223025E-15      0.1110223025E-15      0.5000000000E+00

     0    -1     0
     0     0    -1
    -1     0     0
    0.1110223025E-15      0.1110223025E-15      0.1110223025E-15

     0     0    -1
     0     1     0
    -1     0     0
    0.1110223025E-15      0.5000000000E+00      0.1110223025E-15

     0     1     0
     0     0     1
    -1     0     0
    0.1110223025E-15      0.5000000000E+00      0.5000000000E+00

     0     0     1
     0    -1     0
    -1     0     0
    0.1110223025E-15      0.1110223025E-15      0.5000000000E+00

     0    -1     0
     0     0     1
     1     0     0
    0.5000000000E+00      0.1110223025E-15      0.5000000000E+00

     0     0     1
     0     1     0
     1     0     0
    0.5000000000E+00      0.5000000000E+00      0.5000000000E+00

     0     1     0
     0     0    -1
     1     0     0
    0.5000000000E+00      0.5000000000E+00      0.1110223025E-15

     0     0    -1
     0    -1     0
     1     0     0
    0.5000000000E+00      0.1110223025E-15      0.1110223025E-15

     0     0    -1
    -1     0     0
     0    -1     0
    0.1110223025E-15      0.1110223025E-15      0.1110223025E-15

    -1     0     0
     0     0     1
     0    -1     0
    0.1110223025E-15      0.1110223025E-15      0.5000000000E+00

     0     0     1
     1     0     0
     0    -1     0
    0.5000000000E+00      0.1110223025E-15      0.5000000000E+00

     1     0     0
     0     0    -1
     0    -1     0
    0.5000000000E+00      0.1110223025E-15      0.1110223025E-15

     0     0    -1
     1     0     0
     0     1     0
    0.5000000000E+00      0.5000000000E+00      0.1110223025E-15

     1     0     0
     0     0     1
     0     1     0
    0.5000000000E+00      0.5000000000E+00      0.5000000000E+00

     0     0     1
    -1     0     0
     0     1     0
    0.1110223025E-15      0.5000000000E+00      0.5000000000E+00

    -1     0     0
     0     0    -1
     0     1     0
    0.1110223025E-15      0.5000000000E+00      0.1110223025E-15

 symops and translations in cartesian coordinates = 
    0.1000000000E+01    0.0000000000E+00    0.0000000000E+00
    0.0000000000E+00    0.1000000000E+01    0.0000000000E+00
    0.0000000000E+00    0.0000000000E+00    0.1000000000E+01
    0.0000000000E+00      0.0000000000E+00      0.0000000000E+00

    0.0000000000E+00    0.1000000000E+01    0.0000000000E+00
   -0.1000000000E+01    0.0000000000E+00    0.0000000000E+00
    0.0000000000E+00    0.0000000000E+00    0.1000000000E+01
    0.7558907511E+01      0.0000000000E+00      0.0000000000E+00

   -0.1000000000E+01    0.0000000000E+00    0.0000000000E+00
    0.0000000000E+00   -0.1000000000E+01    0.0000000000E+00
    0.0000000000E+00    0.0000000000E+00    0.1000000000E+01
    0.7558907511E+01      0.7558907511E+01      0.0000000000E+00

    0.0000000000E+00   -0.1000000000E+01    0.0000000000E+00
    0.1000000000E+01    0.0000000000E+00    0.0000000000E+00
    0.0000000000E+00    0.0000000000E+00    0.1000000000E+01
    0.0000000000E+00      0.7558907511E+01      0.0000000000E+00

    0.1000000000E+01    0.0000000000E+00    0.0000000000E+00
    0.0000000000E+00   -0.1000000000E+01    0.0000000000E+00
    0.0000000000E+00    0.0000000000E+00   -0.1000000000E+01
    0.0000000000E+00      0.7558907511E+01      0.7558907511E+01

    0.0000000000E+00   -0.1000000000E+01    0.0000000000E+00
   -0.1000000000E+01    0.0000000000E+00    0.0000000000E+00
    0.0000000000E+00    0.0000000000E+00   -0.1000000000E+01
    0.7558907511E+01      0.7558907511E+01      0.7558907511E+01

   -0.1000000000E+01    0.0000000000E+00    0.0000000000E+00
    0.0000000000E+00    0.1000000000E+01    0.0000000000E+00
    0.0000000000E+00    0.0000000000E+00   -0.1000000000E+01
    0.7558907511E+01      0.0000000000E+00      0.7558907511E+01

    0.0000000000E+00    0.1000000000E+01    0.0000000000E+00
    0.1000000000E+01    0.0000000000E+00    0.0000000000E+00
    0.0000000000E+00    0.0000000000E+00   -0.1000000000E+01
    0.0000000000E+00      0.0000000000E+00      0.7558907511E+01

    0.0000000000E+00    0.1000000000E+01    0.0000000000E+00
    0.0000000000E+00    0.0000000000E+00    0.1000000000E+01
    0.1000000000E+01    0.0000000000E+00    0.0000000000E+00
    0.0000000000E+00      0.0000000000E+00      0.0000000000E+00

    0.0000000000E+00    0.0000000000E+00    0.1000000000E+01
    0.0000000000E+00   -0.1000000000E+01    0.0000000000E+00
    0.1000000000E+01    0.0000000000E+00    0.0000000000E+00
    0.0000000000E+00      0.7558907511E+01      0.0000000000E+00

    0.0000000000E+00   -0.1000000000E+01    0.0000000000E+00
    0.0000000000E+00    0.0000000000E+00   -0.1000000000E+01
    0.1000000000E+01    0.0000000000E+00    0.0000000000E+00
    0.0000000000E+00      0.7558907511E+01      0.7558907511E+01

    0.0000000000E+00    0.0000000000E+00   -0.1000000000E+01
    0.0000000000E+00    0.1000000000E+01    0.0000000000E+00
    0.1000000000E+01    0.0000000000E+00    0.0000000000E+00
    0.0000000000E+00      0.0000000000E+00      0.7558907511E+01

    0.0000000000E+00    0.1000000000E+01    0.0000000000E+00
    0.0000000000E+00    0.0000000000E+00   -0.1000000000E+01
   -0.1000000000E+01    0.0000000000E+00    0.0000000000E+00
    0.7558907511E+01      0.0000000000E+00      0.7558907511E+01

    0.0000000000E+00    0.0000000000E+00   -0.1000000000E+01
    0.0000000000E+00   -0.1000000000E+01    0.0000000000E+00
   -0.1000000000E+01    0.0000000000E+00    0.0000000000E+00
    0.7558907511E+01      0.7558907511E+01      0.7558907511E+01

    0.0000000000E+00   -0.1000000000E+01    0.0000000000E+00
    0.0000000000E+00    0.0000000000E+00    0.1000000000E+01
   -0.1000000000E+01    0.0000000000E+00    0.0000000000E+00
    0.7558907511E+01      0.7558907511E+01      0.0000000000E+00

    0.0000000000E+00    0.0000000000E+00    0.1000000000E+01
    0.0000000000E+00    0.1000000000E+01    0.0000000000E+00
   -0.1000000000E+01    0.0000000000E+00    0.0000000000E+00
    0.7558907511E+01      0.0000000000E+00      0.0000000000E+00

    0.0000000000E+00    0.0000000000E+00    0.1000000000E+01
    0.1000000000E+01    0.0000000000E+00    0.0000000000E+00
    0.0000000000E+00    0.1000000000E+01    0.0000000000E+00
    0.0000000000E+00      0.0000000000E+00      0.0000000000E+00

    0.1000000000E+01    0.0000000000E+00    0.0000000000E+00
    0.0000000000E+00    0.0000000000E+00   -0.1000000000E+01
    0.0000000000E+00    0.1000000000E+01    0.0000000000E+00
    0.0000000000E+00      0.0000000000E+00      0.7558907511E+01

    0.0000000000E+00    0.0000000000E+00   -0.1000000000E+01
   -0.1000000000E+01    0.0000000000E+00    0.0000000000E+00
    0.0000000000E+00    0.1000000000E+01    0.0000000000E+00
    0.7558907511E+01      0.0000000000E+00      0.7558907511E+01

   -0.1000000000E+01    0.0000000000E+00    0.0000000000E+00
    0.0000000000E+00    0.0000000000E+00    0.1000000000E+01
    0.0000000000E+00    0.1000000000E+01    0.0000000000E+00
    0.7558907511E+01      0.0000000000E+00      0.0000000000E+00

    0.0000000000E+00    0.0000000000E+00    0.1000000000E+01
   -0.1000000000E+01    0.0000000000E+00    0.0000000000E+00
    0.0000000000E+00   -0.1000000000E+01    0.0000000000E+00
    0.7558907511E+01      0.7558907511E+01      0.0000000000E+00

   -0.1000000000E+01    0.0000000000E+00    0.0000000000E+00
    0.0000000000E+00    0.0000000000E+00   -0.1000000000E+01
    0.0000000000E+00   -0.1000000000E+01    0.0000000000E+00
    0.7558907511E+01      0.7558907511E+01      0.7558907511E+01

    0.0000000000E+00    0.0000000000E+00   -0.1000000000E+01
    0.1000000000E+01    0.0000000000E+00    0.0000000000E+00
    0.0000000000E+00   -0.1000000000E+01    0.0000000000E+00
    0.0000000000E+00      0.7558907511E+01      0.7558907511E+01

    0.1000000000E+01    0.0000000000E+00    0.0000000000E+00
    0.0000000000E+00    0.0000000000E+00    0.1000000000E+01
    0.0000000000E+00   -0.1000000000E+01    0.0000000000E+00
    0.0000000000E+00      0.7558907511E+01      0.0000000000E+00

   -0.1000000000E+01    0.0000000000E+00    0.0000000000E+00
    0.0000000000E+00   -0.1000000000E+01    0.0000000000E+00
    0.0000000000E+00    0.0000000000E+00   -0.1000000000E+01
    0.1678414632E-14      0.1678414632E-14      0.1678414632E-14

    0.0000000000E+00   -0.1000000000E+01    0.0000000000E+00
    0.1000000000E+01    0.0000000000E+00    0.0000000000E+00
    0.0000000000E+00    0.0000000000E+00   -0.1000000000E+01
    0.7558907511E+01      0.1678414632E-14      0.1678414632E-14

    0.1000000000E+01    0.0000000000E+00    0.0000000000E+00
    0.0000000000E+00    0.1000000000E+01    0.0000000000E+00
    0.0000000000E+00    0.0000000000E+00   -0.1000000000E+01
    0.7558907511E+01      0.7558907511E+01      0.1678414632E-14

    0.0000000000E+00    0.1000000000E+01    0.0000000000E+00
   -0.1000000000E+01    0.0000000000E+00    0.0000000000E+00
    0.0000000000E+00    0.0000000000E+00   -0.1000000000E+01
    0.1678414632E-14      0.7558907511E+01      0.1678414632E-14

   -0.1000000000E+01    0.0000000000E+00    0.0000000000E+00
    0.0000000000E+00    0.1000000000E+01    0.0000000000E+00
    0.0000000000E+00    0.0000000000E+00    0.1000000000E+01
    0.1678414632E-14      0.7558907511E+01      0.7558907511E+01

    0.0000000000E+00    0.1000000000E+01    0.0000000000E+00
    0.1000000000E+01    0.0000000000E+00    0.0000000000E+00
    0.0000000000E+00    0.0000000000E+00    0.1000000000E+01
    0.7558907511E+01      0.7558907511E+01      0.7558907511E+01

    0.1000000000E+01    0.0000000000E+00    0.0000000000E+00
    0.0000000000E+00   -0.1000000000E+01    0.0000000000E+00
    0.0000000000E+00    0.0000000000E+00    0.1000000000E+01
    0.7558907511E+01      0.1678414632E-14      0.7558907511E+01

    0.0000000000E+00   -0.1000000000E+01    0.0000000000E+00
   -0.1000000000E+01    0.0000000000E+00    0.0000000000E+00
    0.0000000000E+00    0.0000000000E+00    0.1000000000E+01
    0.1678414632E-14      0.1678414632E-14      0.7558907511E+01

    0.0000000000E+00   -0.1000000000E+01    0.0000000000E+00
    0.0000000000E+00    0.0000000000E+00   -0.1000000000E+01
   -0.1000000000E+01    0.0000000000E+00    0.0000000000E+00
    0.1678414632E-14      0.1678414632E-14      0.1678414632E-14

    0.0000000000E+00    0.0000000000E+00   -0.1000000000E+01
    0.0000000000E+00    0.1000000000E+01    0.0000000000E+00
   -0.1000000000E+01    0.0000000000E+00    0.0000000000E+00
    0.1678414632E-14      0.7558907511E+01      0.1678414632E-14

    0.0000000000E+00    0.1000000000E+01    0.0000000000E+00
    0.0000000000E+00    0.0000000000E+00    0.1000000000E+01
   -0.1000000000E+01    0.0000000000E+00    0.0000000000E+00
    0.1678414632E-14      0.7558907511E+01      0.7558907511E+01

    0.0000000000E+00    0.0000000000E+00    0.1000000000E+01
    0.0000000000E+00   -0.1000000000E+01    0.0000000000E+00
   -0.1000000000E+01    0.0000000000E+00    0.0000000000E+00
    0.1678414632E-14      0.1678414632E-14      0.7558907511E+01

    0.0000000000E+00   -0.1000000000E+01    0.0000000000E+00
    0.0000000000E+00    0.0000000000E+00    0.1000000000E+01
    0.1000000000E+01    0.0000000000E+00    0.0000000000E+00
    0.7558907511E+01      0.1678414632E-14      0.7558907511E+01

    0.0000000000E+00    0.0000000000E+00    0.1000000000E+01
    0.0000000000E+00    0.1000000000E+01    0.0000000000E+00
    0.1000000000E+01    0.0000000000E+00    0.0000000000E+00
    0.7558907511E+01      0.7558907511E+01      0.7558907511E+01

    0.0000000000E+00    0.1000000000E+01    0.0000000000E+00
    0.0000000000E+00    0.0000000000E+00   -0.1000000000E+01
    0.1000000000E+01    0.0000000000E+00    0.0000000000E+00
    0.7558907511E+01      0.7558907511E+01      0.1678414632E-14

    0.0000000000E+00    0.0000000000E+00   -0.1000000000E+01
    0.0000000000E+00   -0.1000000000E+01    0.0000000000E+00
    0.1000000000E+01    0.0000000000E+00    0.0000000000E+00
    0.7558907511E+01      0.1678414632E-14      0.1678414632E-14

    0.0000000000E+00    0.0000000000E+00   -0.1000000000E+01
   -0.1000000000E+01    0.0000000000E+00    0.0000000000E+00
    0.0000000000E+00   -0.1000000000E+01    0.0000000000E+00
    0.1678414632E-14      0.1678414632E-14      0.1678414632E-14

   -0.1000000000E+01    0.0000000000E+00    0.0000000000E+00
    0.0000000000E+00    0.0000000000E+00    0.1000000000E+01
    0.0000000000E+00   -0.1000000000E+01    0.0000000000E+00
    0.1678414632E-14      0.1678414632E-14      0.7558907511E+01

    0.0000000000E+00    0.0000000000E+00    0.1000000000E+01
    0.1000000000E+01    0.0000000000E+00    0.0000000000E+00
    0.0000000000E+00   -0.1000000000E+01    0.0000000000E+00
    0.7558907511E+01      0.1678414632E-14      0.7558907511E+01

    0.1000000000E+01    0.0000000000E+00    0.0000000000E+00
    0.0000000000E+00    0.0000000000E+00   -0.1000000000E+01
    0.0000000000E+00   -0.1000000000E+01    0.0000000000E+00
    0.7558907511E+01      0.1678414632E-14      0.1678414632E-14

    0.0000000000E+00    0.0000000000E+00   -0.1000000000E+01
    0.1000000000E+01    0.0000000000E+00    0.0000000000E+00
    0.0000000000E+00    0.1000000000E+01    0.0000000000E+00
    0.7558907511E+01      0.7558907511E+01      0.1678414632E-14

    0.1000000000E+01    0.0000000000E+00    0.0000000000E+00
    0.0000000000E+00    0.0000000000E+00    0.1000000000E+01
    0.0000000000E+00    0.1000000000E+01    0.0000000000E+00
    0.7558907511E+01      0.7558907511E+01      0.7558907511E+01

    0.0000000000E+00    0.0000000000E+00    0.1000000000E+01
   -0.1000000000E+01    0.0000000000E+00    0.0000000000E+00
    0.0000000000E+00    0.1000000000E+01    0.0000000000E+00
    0.1678414632E-14      0.7558907511E+01      0.7558907511E+01

   -0.1000000000E+01    0.0000000000E+00    0.0000000000E+00
    0.0000000000E+00    0.0000000000E+00   -0.1000000000E+01
    0.0000000000E+00    0.1000000000E+01    0.0000000000E+00
    0.1678414632E-14      0.7558907511E+01      0.1678414632E-14

----------------------------------------------------------------------


siesta: ******************** Simulation parameters ****************************
siesta:
siesta: The following are some of the parameters of the simulation.
siesta: A complete list of the parameters used, including default values,
siesta: can be found in file out.fdf
siesta:
redata: Spin configuration                          = none
redata: Number of spin components                   = 1
redata: Time-Reversal Symmetry                      = T
redata: Spin-spiral                                 = F
redata: Long output                                 =   F
redata: Number of Atomic Species                    =        1
redata: Charge density info will appear in .RHO file
redata: Write Mulliken Pop.                         = NO
redata: Matel table size (NRTAB)                    =     1024
redata: Mesh Cutoff                                 =   300.0000 Ry
redata: Net charge of the system                    =     0.0000 |e|
redata: Min. number of SCF Iter                     =        0
redata: Max. number of SCF Iter                     =        0
redata: SCF mix quantity                            = Hamiltonian
redata: Mix DM or H after convergence               =   F
redata: Recompute H after scf cycle                 =   F
redata: Mix DM in first SCF step                    =   T
redata: Write Pulay info on disk                    =   F
redata: New DM Mixing Weight                        =     0.2500
redata: New DM Occupancy tolerance                  = 0.000000000001
redata: No kicks to SCF
redata: DM Mixing Weight for Kicks                  =     0.5000
redata: Require Harris convergence for SCF          =   F
redata: Harris energy tolerance for SCF             =     0.000100 eV
redata: Require DM convergence for SCF              =   T
redata: DM tolerance for SCF                        =     0.000100
redata: Require EDM convergence for SCF             =   F
redata: EDM tolerance for SCF                       =     0.001000 eV
redata: Require H convergence for SCF               =   T
redata: Hamiltonian tolerance for SCF               =     0.001000 eV
redata: Require (free) Energy convergence for SCF   =   F
redata: (free) Energy tolerance for SCF             =     0.000100 eV
redata: Using Saved Data (generic)                  =   F
redata: Use continuation files for DM               =   F
redata: Neglect nonoverlap interactions             =   F
redata: Method of Calculation                       = Diagonalization
redata: Electronic Temperature                      =   299.9869 K
redata: Fix the spin of the system                  =   F
redata: Max. number of TDED Iter                    =        1
redata: Number of TDED substeps                     =        3
redata: Dynamics option                             = Single-point calculation
mix.SCF: Pulay mixing                            = Pulay
mix.SCF:    Variant                              = stable
mix.SCF:    History steps                        = 2
mix.SCF:    Linear mixing weight                 =     0.250000
mix.SCF:    Mixing weight                        =     0.250000
mix.SCF:    SVD condition                        = 0.1000E-07
redata: ***********************************************************************

%block SCF.Mixers
  Pulay
%endblock SCF.Mixers

%block SCF.Mixer.Pulay
  # Mixing method
  method pulay
  variant stable

  # Mixing options
  weight 0.2500
  weight.linear 0.2500
  history 2
%endblock SCF.Mixer.Pulay

DM_history_depth set to one: no extrapolation allowed by default for geometry relaxation
Size of DM history Fstack: 1
Total number of electrons:    48.000000
Total ionic charge:    48.000000

* ProcessorY, Blocksize:    2  24


* Orbital distribution balance (max,min):    48    24


siesta: k-grid: Number of k-points =         1
siesta: k-point is Gamma-only

diag: Algorithm                                     = D&C
diag: Parallel over k                               =   F
diag: Use parallel 2D distribution                  =   T
diag: Parallel block-size                           = 24
diag: Parallel distribution                         =     2 x     4
diag: Used triangular part                          = Lower
diag: Absolute tolerance                            =  0.100E-15
diag: Orthogonalization factor                      =  0.100E-05
diag: Memory factor                                 =  1.0000


ts: **************************************************************
ts: Save H and S matrices                           =    F
ts: Save DM and EDM matrices                        =    F
ts: Fix Hartree potential                           =    F
ts: Only save the overlap matrix S                  =    F
ts: **************************************************************

************************ Begin: TS CHECKS AND WARNINGS ************************
************************ End: TS CHECKS AND WARNINGS **************************


                     ====================================
                        Single-point calculation
                     ====================================

outcell: Unit cell vectors (Ang):
        8.000000    0.000000    0.000000
        0.000000    8.000000    0.000000
        0.000000    0.000000    8.000000

outcell: Cell vector modules (Ang)   :    8.000000    8.000000    8.000000
outcell: Cell angles (23,13,12) (deg):     90.0000     90.0000     90.0000
outcell: Cell volume (Ang**3)        :    512.0000
Gamma-point calculation with multiply-connected orbital pairs
Folding of H and S implicitly performed
<dSpData1D:S at geom step 0
  <sparsity:sparsity for geom step 0
    nrows_g=240 nrows=48 sparsity=.1342 nnzs=7728, refcount: 7>
  <dData1D:(new from dSpData1D) n=7728, refcount: 1>
refcount: 1>
new_DM -- step:     1
Initializing Density Matrix...
DM filled with atomic data:
<dSpData2D:DM initialized from atoms
  <sparsity:sparsity for geom step 0
    nrows_g=240 nrows=48 sparsity=.1342 nnzs=7728, refcount: 8>
  <dData2D:DM n=7728 m=1, refcount: 1>
refcount: 1>
No. of atoms with KB's overlaping orbs in proc 0. Max # of overlaps:      48     117
New grid distribution:   1
           1       1:   45    1:   23    1:   12
           2       1:   45    1:   23   13:   23
           3       1:   45    1:   23   24:   34
           4       1:   45    1:   23   35:   45
           5       1:   45   24:   45    1:   12
           6       1:   45   24:   45   13:   23
           7       1:   45   24:   45   24:   34
           8       1:   45   24:   45   35:   45

InitMesh: MESH =    90 x    90 x    90 =      729000
InitMesh: (bp) =    45 x    45 x    45 =       91125
InitMesh: Mesh cutoff (required, used) =   300.000   349.789 Ry
ExtMesh (bp) on 0 =   105 x    83 x    72 =      627480
New grid distribution:   2
           1      13:   45    1:   13    1:   23
           2       1:   12    1:   13    1:   23
           3       1:   31    1:   32   24:   45
           4      32:   45    1:   32   24:   45
           5      15:   45   14:   45    1:   23
           6       1:   14   14:   45    1:   23
           7       1:   33   33:   45   24:   45
           8      34:   45   33:   45   24:   45
New grid distribution:   3
           1      22:   45    1:   22    1:   23
           2       1:   21    1:   22    1:   23
           3       1:   23    1:   23   24:   45
           4      24:   45    1:   23   24:   45
           5       1:   23   23:   45    1:   23
           6      24:   45   23:   45    1:   23
           7       1:   24   24:   45   24:   45
           8      25:   45   24:   45   24:   45
Setting up quadratic distribution...
ExtMesh (bp) on 0 =    93 x    73 x    83 =      563487
PhiOnMesh: Number of (b)points on node 0 =                 9867
PhiOnMesh: nlist on node 0 =               348947
SCF_NOT_CONV: SCF did not converge  in maximum number of steps.
Geom step, scf iteration, dmax:    0     0     0.000000

Using DM_out to compute the final energy and forces
No. of atoms with KB's overlaping orbs in proc 0. Max # of overlaps:      48     117

siesta: E_KS(eV) =             -688.0563
change in fa due to symmetrization =    -0.42410519540680979844E-13   -0.12084777623044828943E-12   -0.63393734706096438458E-13
change in fa due to symmetrization =     0.12140288774276086770E-12   -0.36970426720017712796E-13   -0.66613381477509392425E-13
change in fa due to symmetrization =     0.38302694349567900645E-13    0.12034817586936696898E-12   -0.68389738316909642890E-13
change in fa due to symmetrization =    -0.12068124277675451594E-12    0.36637359812630165834E-13   -0.78492767840998567408E-13
change in fa due to symmetrization =    -0.44853010194856324233E-13    0.12218004385999847727E-12    0.65059069243034173269E-13
change in fa due to symmetrization =    -0.42410519540680979844E-13   -0.12084777623044828943E-12   -0.63393734706096438458E-13
change in fa due to symmetrization =     0.12140288774276086770E-12   -0.36970426720017712796E-13   -0.66613381477509392425E-13
change in fa due to symmetrization =     0.38302694349567900645E-13    0.12034817586936696898E-12   -0.68389738316909642890E-13
change in fa due to symmetrization =    -0.12068124277675451594E-12    0.36637359812630165834E-13   -0.78492767840998567408E-13
change in fa due to symmetrization =    -0.44853010194856324233E-13    0.12218004385999847727E-12    0.65059069243034173269E-13
change in fa due to symmetrization =     0.12095879853291080508E-12    0.36748382115092681488E-13    0.82933659939499193570E-13
change in fa due to symmetrization =    -0.42410519540680979844E-13   -0.12084777623044828943E-12   -0.63393734706096438458E-13
change in fa due to symmetrization =     0.12140288774276086770E-12   -0.36970426720017712796E-13   -0.66613381477509392425E-13
change in fa due to symmetrization =     0.38302694349567900645E-13    0.12034817586936696898E-12   -0.68389738316909642890E-13
change in fa due to symmetrization =    -0.12068124277675451594E-12    0.36637359812630165834E-13   -0.78492767840998567408E-13
change in fa due to symmetrization =    -0.44853010194856324233E-13    0.12218004385999847727E-12    0.65059069243034173269E-13
change in fa due to symmetrization =     0.12095879853291080508E-12    0.36748382115092681488E-13    0.82933659939499193570E-13
change in fa due to symmetrization =     0.38524738954492931953E-13   -0.12079226507921703160E-12    0.68833827526759705506E-13
change in fa due to symmetrization =    -0.42410519540680979844E-13   -0.12084777623044828943E-12   -0.63393734706096438458E-13
change in fa due to symmetrization =     0.12140288774276086770E-12   -0.36970426720017712796E-13   -0.66613381477509392425E-13
change in fa due to symmetrization =     0.38302694349567900645E-13    0.12034817586936696898E-12   -0.68389738316909642890E-13
change in fa due to symmetrization =    -0.12068124277675451594E-12    0.36637359812630165834E-13   -0.78492767840998567408E-13
change in fa due to symmetrization =    -0.44853010194856324233E-13    0.12218004385999847727E-12    0.65059069243034173269E-13
change in fa due to symmetrization =     0.12095879853291080508E-12    0.36748382115092681488E-13    0.82933659939499193570E-13
change in fa due to symmetrization =     0.38524738954492931953E-13   -0.12079226507921703160E-12    0.68833827526759705506E-13
change in fa due to symmetrization =    -0.42410519540680979844E-13   -0.12084777623044828943E-12   -0.63393734706096438458E-13
change in fa due to symmetrization =    -0.42410519540680979844E-13   -0.12084777623044828943E-12   -0.63393734706096438458E-13
change in fa due to symmetrization =     0.12140288774276086770E-12   -0.36970426720017712796E-13   -0.66613381477509392425E-13
change in fa due to symmetrization =     0.38302694349567900645E-13    0.12034817586936696898E-12   -0.68389738316909642890E-13
change in fa due to symmetrization =    -0.12068124277675451594E-12    0.36637359812630165834E-13   -0.78492767840998567408E-13
change in fa due to symmetrization =    -0.44853010194856324233E-13    0.12218004385999847727E-12    0.65059069243034173269E-13
change in fa due to symmetrization =     0.12095879853291080508E-12    0.36748382115092681488E-13    0.82933659939499193570E-13
change in fa due to symmetrization =    -0.42410519540680979844E-13   -0.12084777623044828943E-12   -0.63393734706096438458E-13
change in fa due to symmetrization =     0.12140288774276086770E-12   -0.36970426720017712796E-13   -0.66613381477509392425E-13
change in fa due to symmetrization =     0.38302694349567900645E-13    0.12034817586936696898E-12   -0.68389738316909642890E-13
change in fa due to symmetrization =    -0.12068124277675451594E-12    0.36637359812630165834E-13   -0.78492767840998567408E-13
change in fa due to symmetrization =    -0.44853010194856324233E-13    0.12218004385999847727E-12    0.65059069243034173269E-13
change in fa due to symmetrization =     0.12095879853291080508E-12    0.36748382115092681488E-13    0.82933659939499193570E-13
change in fa due to symmetrization =     0.38524738954492931953E-13   -0.12079226507921703160E-12    0.68833827526759705506E-13
change in fa due to symmetrization =    -0.12134737659152960987E-12   -0.35971225997855071910E-13    0.71498362785860081203E-13
change in fa due to symmetrization =    -0.51292303737682232168E-13    0.21316282072803005576E-13    0.62061467076546250610E-13
change in fa due to symmetrization =    -0.12134737659152960987E-12   -0.35971225997855071910E-13    0.71498362785860081203E-13
change in fa due to symmetrization =    -0.51292303737682232168E-13    0.21316282072803005576E-13    0.62061467076546250610E-13
change in fa due to symmetrization =     0.10369483049998962088E-12   -0.60562665993302289280E-13    0.20428103653102880344E-13
change in fa due to symmetrization =    -0.46407322429331543390E-13   -0.18651746813702629879E-13   -0.60007554480989711010E-13
change in fa due to symmetrization =     0.10258460747536446434E-12    0.61950444774083734956E-13   -0.27311486405778850894E-13
change in fa due to symmetrization =     0.33306690738754696213E-13    0.16542323066914832452E-13   -0.63893335067177758901E-13
change in fa due to symmetrization =    -0.10602629885170244961E-12   -0.59785509876064679702E-13   -0.14765966227514581988E-13
change in fa due to symmetrization =     0.12140288774276086770E-12   -0.36970426720017712796E-13   -0.66613381477509392425E-13
change in fa due to symmetrization =     0.38302694349567900645E-13    0.12034817586936696898E-12   -0.68389738316909642890E-13
change in fa due to symmetrization =    -0.12068124277675451594E-12    0.36637359812630165834E-13   -0.78492767840998567408E-13
change in fa due to symmetrization =    -0.44853010194856324233E-13    0.12218004385999847727E-12    0.65059069243034173269E-13
change in fa due to symmetrization =     0.38524738954492931953E-13   -0.12079226507921703160E-12    0.68833827526759705506E-13
change in fa due to symmetrization =    -0.12134737659152960987E-12   -0.35971225997855071910E-13    0.71498362785860081203E-13
change in fa due to symmetrization =    -0.51292303737682232168E-13    0.21316282072803005576E-13    0.62061467076546250610E-13
change in fa due to symmetrization =     0.10369483049998962088E-12   -0.60562665993302289280E-13    0.20428103653102880344E-13
change in fa due to symmetrization =    -0.46407322429331543390E-13   -0.18651746813702629879E-13   -0.60007554480989711010E-13
change in fa due to symmetrization =     0.10258460747536446434E-12    0.61950444774083734956E-13   -0.27311486405778850894E-13
change in fa due to symmetrization =     0.10369483049998962088E-12   -0.60562665993302289280E-13    0.20428103653102880344E-13
change in fa due to symmetrization =    -0.46407322429331543390E-13   -0.18651746813702629879E-13   -0.60007554480989711010E-13
change in fa due to symmetrization =     0.10258460747536446434E-12    0.61950444774083734956E-13   -0.27311486405778850894E-13
change in fa due to symmetrization =     0.33306690738754696213E-13    0.16542323066914832452E-13   -0.63893335067177758901E-13
change in fa due to symmetrization =    -0.10602629885170244961E-12   -0.59785509876064679702E-13   -0.14765966227514581988E-13
change in fa due to symmetrization =     0.35971225997855071910E-13   -0.16764367671839863760E-13    0.58397731095283234026E-13
change in fa due to symmetrization =    -0.10313971898767704261E-12    0.57176485768195561832E-13    0.24202861936828412581E-13
change in fa due to symmetrization =     0.62783112042552602361E-13    0.10835776720341527835E-12    0.19761969838327786420E-13
change in fa due to symmetrization =     0.14988010832439613296E-13   -0.30420110874729289208E-13   -0.64059868520871532382E-13
change in fa due to symmetrization =    -0.64115379672102790209E-13    0.10524914273446484003E-12   -0.23536728122053318657E-13
change in fa due to symmetrization =    -0.14099832412739488063E-13   -0.41411318818518338958E-13    0.64392935428259079345E-13
change in fa due to symmetrization =    -0.62005955925314992783E-13   -0.10891287871572785662E-12    0.15543122344752191566E-13
change in fa due to symmetrization =    -0.14099832412739488063E-13    0.32640556923979602288E-13   -0.59230398363752101432E-13
change in fa due to symmetrization =     0.63671290462252727593E-13   -0.10769163338864018442E-12   -0.11657341758564143674E-13
change in fa due to symmetrization =     0.12095879853291080508E-12    0.36748382115092681488E-13    0.82933659939499193570E-13
change in fa due to symmetrization =     0.38524738954492931953E-13   -0.12079226507921703160E-12    0.68833827526759705506E-13
change in fa due to symmetrization =    -0.12134737659152960987E-12   -0.35971225997855071910E-13    0.71498362785860081203E-13
change in fa due to symmetrization =    -0.51292303737682232168E-13    0.21316282072803005576E-13    0.62061467076546250610E-13
change in fa due to symmetrization =     0.10369483049998962088E-12   -0.60562665993302289280E-13    0.20428103653102880344E-13
change in fa due to symmetrization =    -0.46407322429331543390E-13   -0.18651746813702629879E-13   -0.60007554480989711010E-13
change in fa due to symmetrization =     0.10258460747536446434E-12    0.61950444774083734956E-13   -0.27311486405778850894E-13
change in fa due to symmetrization =     0.33306690738754696213E-13    0.16542323066914832452E-13   -0.63893335067177758901E-13
change in fa due to symmetrization =    -0.10602629885170244961E-12   -0.59785509876064679702E-13   -0.14765966227514581988E-13
change in fa due to symmetrization =     0.35971225997855071910E-13   -0.16764367671839863760E-13    0.58397731095283234026E-13
change in fa due to symmetrization =    -0.10313971898767704261E-12    0.57176485768195561832E-13    0.24202861936828412581E-13
change in fa due to symmetrization =     0.62783112042552602361E-13    0.10835776720341527835E-12    0.19761969838327786420E-13
change in fa due to symmetrization =     0.14988010832439613296E-13   -0.30420110874729289208E-13   -0.64059868520871532382E-13
change in fa due to symmetrization =     0.38524738954492931953E-13   -0.12079226507921703160E-12    0.68833827526759705506E-13
change in fa due to symmetrization =    -0.12134737659152960987E-12   -0.35971225997855071910E-13    0.71498362785860081203E-13
change in fa due to symmetrization =    -0.51292303737682232168E-13    0.21316282072803005576E-13    0.62061467076546250610E-13
change in fa due to symmetrization =     0.10369483049998962088E-12   -0.60562665993302289280E-13    0.20428103653102880344E-13
change in fa due to symmetrization =    -0.46407322429331543390E-13   -0.18651746813702629879E-13   -0.60007554480989711010E-13
change in fa due to symmetrization =     0.10258460747536446434E-12    0.61950444774083734956E-13   -0.27311486405778850894E-13
change in fa due to symmetrization =     0.33306690738754696213E-13    0.16542323066914832452E-13   -0.63893335067177758901E-13
change in fa due to symmetrization =    -0.10602629885170244961E-12   -0.59785509876064679702E-13   -0.14765966227514581988E-13
change in fa due to symmetrization =     0.35971225997855071910E-13   -0.16764367671839863760E-13    0.58397731095283234026E-13
change in fa due to symmetrization =    -0.10313971898767704261E-12    0.57176485768195561832E-13    0.24202861936828412581E-13
change in fa due to symmetrization =     0.62783112042552602361E-13    0.10835776720341527835E-12    0.19761969838327786420E-13
change in fa due to symmetrization =     0.14988010832439613296E-13   -0.30420110874729289208E-13   -0.64059868520871532382E-13
change in fa due to symmetrization =    -0.64115379672102790209E-13    0.10524914273446484003E-12   -0.23536728122053318657E-13
change in fa due to symmetrization =    -0.14099832412739488063E-13   -0.41411318818518338958E-13    0.64392935428259079345E-13
change in fa due to symmetrization =     0.33306690738754696213E-13    0.16542323066914832452E-13   -0.63893335067177758901E-13
change in fa due to symmetrization =    -0.10602629885170244961E-12   -0.59785509876064679702E-13   -0.14765966227514581988E-13
change in fa due to symmetrization =     0.35971225997855071910E-13   -0.16764367671839863760E-13    0.58397731095283234026E-13
change in fa due to symmetrization =    -0.10313971898767704261E-12    0.57176485768195561832E-13    0.24202861936828412581E-13
change in fa due to symmetrization =     0.62783112042552602361E-13    0.10835776720341527835E-12    0.19761969838327786420E-13
change in fa due to symmetrization =     0.14988010832439613296E-13   -0.30420110874729289208E-13   -0.64059868520871532382E-13
change in fa due to symmetrization =     0.35971225997855071910E-13   -0.16764367671839863760E-13    0.58397731095283234026E-13
change in fa due to symmetrization =    -0.10313971898767704261E-12    0.57176485768195561832E-13    0.24202861936828412581E-13
change in fa due to symmetrization =     0.62783112042552602361E-13    0.10835776720341527835E-12    0.19761969838327786420E-13
change in fa due to symmetrization =     0.14988010832439613296E-13   -0.30420110874729289208E-13   -0.64059868520871532382E-13
change in fa due to symmetrization =    -0.64115379672102790209E-13    0.10524914273446484003E-12   -0.23536728122053318657E-13
change in fa due to symmetrization =     0.12095879853291080508E-12    0.36748382115092681488E-13    0.82933659939499193570E-13
change in fa due to symmetrization =     0.38524738954492931953E-13   -0.12079226507921703160E-12    0.68833827526759705506E-13
change in fa due to symmetrization =    -0.12134737659152960987E-12   -0.35971225997855071910E-13    0.71498362785860081203E-13
change in fa due to symmetrization =    -0.51292303737682232168E-13    0.21316282072803005576E-13    0.62061467076546250610E-13
change in fa due to symmetrization =     0.10369483049998962088E-12   -0.60562665993302289280E-13    0.20428103653102880344E-13
change in fa due to symmetrization =    -0.46407322429331543390E-13   -0.18651746813702629879E-13   -0.60007554480989711010E-13
change in fa due to symmetrization =     0.10258460747536446434E-12    0.61950444774083734956E-13   -0.27311486405778850894E-13
change in fa due to symmetrization =    -0.62005955925314992783E-13   -0.10891287871572785662E-12    0.15543122344752191566E-13
change in fa due to symmetrization =    -0.14099832412739488063E-13    0.32640556923979602288E-13   -0.59230398363752101432E-13
change in fa due to symmetrization =     0.63671290462252727593E-13   -0.10769163338864018442E-12   -0.11657341758564143674E-13
change in fa due to symmetrization =     0.12101430968414206291E-13    0.33195668436292180559E-13    0.60451643690839773626E-13
change in fa due to symmetrization =    -0.64115379672102790209E-13    0.10524914273446484003E-12   -0.23536728122053318657E-13
change in fa due to symmetrization =    -0.14099832412739488063E-13   -0.41411318818518338958E-13    0.64392935428259079345E-13
change in fa due to symmetrization =    -0.62005955925314992783E-13   -0.10891287871572785662E-12    0.15543122344752191566E-13
change in fa due to symmetrization =    -0.14099832412739488063E-13    0.32640556923979602288E-13   -0.59230398363752101432E-13
change in fa due to symmetrization =     0.12101430968414206291E-13    0.33195668436292180559E-13    0.60451643690839773626E-13
change in fa due to symmetrization =     0.38191672047105384991E-13    0.12129186544029835204E-12    0.62616578588858828880E-13
change in fa due to symmetrization =    -0.12262413306984853989E-12    0.34416913763379852753E-13    0.65059069243034173269E-13
change in fa due to symmetrization =    -0.36970426720017712796E-13   -0.12573275753879897820E-12    0.66169292267659329809E-13
change in fa due to symmetrization =     0.12284617767477357120E-12   -0.34861002973229915369E-13    0.67279515292284486350E-13
change in fa due to symmetrization =     0.41078251911130791996E-13   -0.12306822227969860251E-12   -0.66058269965196814155E-13
change in fa due to symmetrization =    -0.12273515537231105554E-12   -0.33084646133829664905E-13   -0.67057470687359455042E-13
change in fa due to symmetrization =     0.33306690738754696213E-13    0.16542323066914832452E-13   -0.63893335067177758901E-13
change in fa due to symmetrization =    -0.10602629885170244961E-12   -0.59785509876064679702E-13   -0.14765966227514581988E-13
change in fa due to symmetrization =     0.35971225997855071910E-13   -0.16764367671839863760E-13    0.58397731095283234026E-13
change in fa due to symmetrization =    -0.10313971898767704261E-12    0.57176485768195561832E-13    0.24202861936828412581E-13
change in fa due to symmetrization =     0.62783112042552602361E-13    0.10835776720341527835E-12    0.19761969838327786420E-13
change in fa due to symmetrization =     0.14988010832439613296E-13   -0.30420110874729289208E-13   -0.64059868520871532382E-13
change in fa due to symmetrization =    -0.64115379672102790209E-13    0.10524914273446484003E-12   -0.23536728122053318657E-13
change in fa due to symmetrization =    -0.14099832412739488063E-13   -0.41411318818518338958E-13    0.64392935428259079345E-13
change in fa due to symmetrization =    -0.62005955925314992783E-13   -0.10891287871572785662E-12    0.15543122344752191566E-13
change in fa due to symmetrization =    -0.14099832412739488063E-13    0.32640556923979602288E-13   -0.59230398363752101432E-13
change in fa due to symmetrization =     0.63671290462252727593E-13   -0.10769163338864018442E-12   -0.11657341758564143674E-13
change in fa due to symmetrization =     0.12101430968414206291E-13    0.33195668436292180559E-13    0.60451643690839773626E-13
change in fa due to symmetrization =     0.38191672047105384991E-13    0.12129186544029835204E-12    0.62616578588858828880E-13
change in fa due to symmetrization =    -0.12262413306984853989E-12    0.34416913763379852753E-13    0.65059069243034173269E-13
change in fa due to symmetrization =    -0.36970426720017712796E-13   -0.12573275753879897820E-12    0.66169292267659329809E-13
change in fa due to symmetrization =     0.12284617767477357120E-12   -0.34861002973229915369E-13    0.67279515292284486350E-13
change in fa due to symmetrization =    -0.14099832412739488063E-13   -0.41411318818518338958E-13    0.64392935428259079345E-13
change in fa due to symmetrization =    -0.62005955925314992783E-13   -0.10891287871572785662E-12    0.15543122344752191566E-13
change in fa due to symmetrization =    -0.14099832412739488063E-13    0.32640556923979602288E-13   -0.59230398363752101432E-13
change in fa due to symmetrization =     0.63671290462252727593E-13   -0.10769163338864018442E-12   -0.11657341758564143674E-13
change in fa due to symmetrization =     0.12101430968414206291E-13    0.33195668436292180559E-13    0.60451643690839773626E-13
change in fa due to symmetrization =     0.38191672047105384991E-13    0.12129186544029835204E-12    0.62616578588858828880E-13
change in fa due to symmetrization =    -0.12262413306984853989E-12    0.34416913763379852753E-13    0.65059069243034173269E-13
change in fa due to symmetrization =    -0.36970426720017712796E-13   -0.12573275753879897820E-12    0.66169292267659329809E-13
change in fa due to symmetrization =     0.12284617767477357120E-12   -0.34861002973229915369E-13    0.67279515292284486350E-13
change in fa due to symmetrization =     0.41078251911130791996E-13   -0.12306822227969860251E-12   -0.66058269965196814155E-13
change in fa due to symmetrization =     0.63671290462252727593E-13   -0.10769163338864018442E-12   -0.11657341758564143674E-13

siesta: E_KS - E_eggbox =      -688.0563
change in fa due to symmetrization =    -0.42410519540680979844E-13   -0.12084777623044828943E-12   -0.63393734706096438458E-13
change in fa due to symmetrization =     0.12140288774276086770E-12   -0.36970426720017712796E-13   -0.66613381477509392425E-13
change in fa due to symmetrization =     0.38302694349567900645E-13    0.12034817586936696898E-12   -0.68389738316909642890E-13
change in fa due to symmetrization =    -0.12068124277675451594E-12    0.36637359812630165834E-13   -0.78492767840998567408E-13
change in fa due to symmetrization =    -0.44853010194856324233E-13    0.12218004385999847727E-12    0.65059069243034173269E-13
change in fa due to symmetrization =     0.12095879853291080508E-12    0.36748382115092681488E-13    0.82933659939499193570E-13
change in fa due to symmetrization =     0.38524738954492931953E-13   -0.12079226507921703160E-12    0.68833827526759705506E-13
change in fa due to symmetrization =    -0.12134737659152960987E-12   -0.35971225997855071910E-13    0.71498362785860081203E-13
change in fa due to symmetrization =    -0.51292303737682232168E-13    0.21316282072803005576E-13    0.62061467076546250610E-13
change in fa due to symmetrization =     0.10369483049998962088E-12   -0.60562665993302289280E-13    0.20428103653102880344E-13
change in fa due to symmetrization =    -0.12273515537231105554E-12   -0.33084646133829664905E-13   -0.67057470687359455042E-13
change in fa due to symmetrization =    -0.36193270602780103218E-13    0.12279066652354231337E-12   -0.77937656328685989138E-13
change in fa due to symmetrization =     0.12206902155753596162E-12    0.32418512319054570980E-13   -0.84154905266586865764E-13
change in fa due to symmetrization =     0.32418512319054570980E-13   -0.17430501486614957685E-13   -0.62005955925314992783E-13
change in fa due to symmetrization =    -0.10147438445073930779E-12    0.59452442968677132740E-13   -0.18984813721090176841E-13
change in fa due to symmetrization =     0.46185277824406512082E-13    0.20872192862952942960E-13    0.58231197641589460545E-13
change in fa due to symmetrization =    -0.10424994201230219915E-12   -0.59452442968677132740E-13    0.19761969838327786420E-13
change in fa due to symmetrization =    -0.34749980670767399715E-13   -0.19984014443252817728E-13    0.53790305543088834384E-13
change in fa due to symmetrization =     0.38191672047105384991E-13    0.12129186544029835204E-12    0.62616578588858828880E-13
change in fa due to symmetrization =    -0.12262413306984853989E-12    0.34416913763379852753E-13    0.65059069243034173269E-13
change in fa due to symmetrization =    -0.36970426720017712796E-13   -0.12573275753879897820E-12    0.66169292267659329809E-13
change in fa due to symmetrization =     0.12284617767477357120E-12   -0.34861002973229915369E-13    0.67279515292284486350E-13
change in fa due to symmetrization =     0.41078251911130791996E-13   -0.12306822227969860251E-12   -0.66058269965196814155E-13
change in fa due to symmetrization =    -0.12273515537231105554E-12   -0.33084646133829664905E-13   -0.67057470687359455042E-13
change in fa due to symmetrization =    -0.36193270602780103218E-13    0.12279066652354231337E-12   -0.77937656328685989138E-13
change in fa due to symmetrization =     0.12206902155753596162E-12    0.32418512319054570980E-13   -0.84154905266586865764E-13
change in fa due to symmetrization =     0.32418512319054570980E-13   -0.17430501486614957685E-13   -0.62005955925314992783E-13
change in fa due to symmetrization =    -0.10147438445073930779E-12    0.59452442968677132740E-13   -0.18984813721090176841E-13
change in fa due to symmetrization =    -0.12134737659152960987E-12   -0.35971225997855071910E-13    0.71498362785860081203E-13
change in fa due to symmetrization =    -0.51292303737682232168E-13    0.21316282072803005576E-13    0.62061467076546250610E-13
change in fa due to symmetrization =     0.10369483049998962088E-12   -0.60562665993302289280E-13    0.20428103653102880344E-13
change in fa due to symmetrization =    -0.46407322429331543390E-13   -0.18651746813702629879E-13   -0.60007554480989711010E-13
change in fa due to symmetrization =     0.10258460747536446434E-12    0.61950444774083734956E-13   -0.27311486405778850894E-13
change in fa due to symmetrization =     0.33306690738754696213E-13    0.16542323066914832452E-13   -0.63893335067177758901E-13
change in fa due to symmetrization =    -0.10602629885170244961E-12   -0.59785509876064679702E-13   -0.14765966227514581988E-13
change in fa due to symmetrization =     0.35971225997855071910E-13   -0.16764367671839863760E-13    0.58397731095283234026E-13
change in fa due to symmetrization =    -0.10313971898767704261E-12    0.57176485768195561832E-13    0.24202861936828412581E-13
change in fa due to symmetrization =     0.62783112042552602361E-13    0.10835776720341527835E-12    0.19761969838327786420E-13
change in fa due to symmetrization =     0.14988010832439613296E-13   -0.30420110874729289208E-13   -0.64059868520871532382E-13
change in fa due to symmetrization =    -0.64115379672102790209E-13    0.10524914273446484003E-12   -0.23536728122053318657E-13
change in fa due to symmetrization =    -0.14099832412739488063E-13   -0.41411318818518338958E-13    0.64392935428259079345E-13
change in fa due to symmetrization =    -0.36193270602780103218E-13    0.12279066652354231337E-12   -0.77937656328685989138E-13
change in fa due to symmetrization =     0.12206902155753596162E-12    0.32418512319054570980E-13   -0.84154905266586865764E-13
change in fa due to symmetrization =     0.32418512319054570980E-13   -0.17430501486614957685E-13   -0.62005955925314992783E-13
change in fa due to symmetrization =    -0.10147438445073930779E-12    0.59452442968677132740E-13   -0.18984813721090176841E-13
change in fa due to symmetrization =     0.46185277824406512082E-13    0.20872192862952942960E-13    0.58231197641589460545E-13
change in fa due to symmetrization =    -0.10424994201230219915E-12   -0.59452442968677132740E-13    0.19761969838327786420E-13
change in fa due to symmetrization =    -0.34749980670767399715E-13   -0.19984014443252817728E-13    0.53790305543088834384E-13
change in fa due to symmetrization =     0.10269562977782697999E-12    0.59008353758827070124E-13    0.28976820942716585705E-13
change in fa due to symmetrization =    -0.33750779948604758829E-13    0.20650148258027911652E-13   -0.59452442968677132740E-13
change in fa due to symmetrization =     0.10003109451872660429E-12   -0.61450844413002414512E-13   -0.26645352591003756970E-13
change in fa due to symmetrization =    -0.62894134345015118015E-13   -0.10813572259849024704E-12   -0.24202861936828412581E-13
change in fa due to symmetrization =    -0.64115379672102790209E-13    0.10524914273446484003E-12   -0.23536728122053318657E-13
change in fa due to symmetrization =    -0.14099832412739488063E-13   -0.41411318818518338958E-13    0.64392935428259079345E-13
change in fa due to symmetrization =    -0.62005955925314992783E-13   -0.10891287871572785662E-12    0.15543122344752191566E-13
change in fa due to symmetrization =    -0.14099832412739488063E-13    0.32640556923979602288E-13   -0.59230398363752101432E-13
change in fa due to symmetrization =     0.63671290462252727593E-13   -0.10769163338864018442E-12   -0.11657341758564143674E-13
change in fa due to symmetrization =     0.12101430968414206291E-13    0.33195668436292180559E-13    0.60451643690839773626E-13
change in fa due to symmetrization =     0.38191672047105384991E-13    0.12129186544029835204E-12    0.62616578588858828880E-13
change in fa due to symmetrization =     0.41078251911130791996E-13   -0.12306822227969860251E-12   -0.66058269965196814155E-13
change in fa due to symmetrization =    -0.12273515537231105554E-12   -0.33084646133829664905E-13   -0.67057470687359455042E-13
change in fa due to symmetrization =    -0.36193270602780103218E-13    0.12279066652354231337E-12   -0.77937656328685989138E-13
change in fa due to symmetrization =     0.12206902155753596162E-12    0.32418512319054570980E-13   -0.84154905266586865764E-13
change in fa due to symmetrization =     0.32418512319054570980E-13   -0.17430501486614957685E-13   -0.62005955925314992783E-13
change in fa due to symmetrization =     0.10269562977782697999E-12    0.59008353758827070124E-13    0.28976820942716585705E-13
change in fa due to symmetrization =    -0.33750779948604758829E-13    0.20650148258027911652E-13   -0.59452442968677132740E-13
change in fa due to symmetrization =     0.46185277824406512082E-13    0.20872192862952942960E-13    0.58231197641589460545E-13
change in fa due to symmetrization =    -0.62005955925314992783E-13   -0.10891287871572785662E-12    0.15543122344752191566E-13
change in fa due to symmetrization =    -0.14099832412739488063E-13    0.32640556923979602288E-13   -0.59230398363752101432E-13
change in fa due to symmetrization =    -0.12767564783189300215E-13    0.27755575615628913511E-13    0.60007554480989711010E-13
change in fa due to symmetrization =     0.62116978227777508437E-13   -0.10569323194431490265E-12    0.19206858326015208149E-13
change in fa due to symmetrization =    -0.12262413306984853989E-12    0.34416913763379852753E-13    0.65059069243034173269E-13
change in fa due to symmetrization =    -0.36970426720017712796E-13   -0.12573275753879897820E-12    0.66169292267659329809E-13
change in fa due to symmetrization =     0.12284617767477357120E-12   -0.34861002973229915369E-13    0.67279515292284486350E-13
change in fa due to symmetrization =    -0.10147438445073930779E-12    0.59452442968677132740E-13   -0.18984813721090176841E-13
change in fa due to symmetrization =     0.46185277824406512082E-13    0.20872192862952942960E-13    0.58231197641589460545E-13
change in fa due to symmetrization =    -0.10424994201230219915E-12   -0.59452442968677132740E-13    0.19761969838327786420E-13
change in fa due to symmetrization =    -0.34749980670767399715E-13   -0.19984014443252817728E-13    0.53790305543088834384E-13
change in fa due to symmetrization =     0.10269562977782697999E-12    0.59008353758827070124E-13    0.28976820942716585705E-13
change in fa due to symmetrization =    -0.33750779948604758829E-13    0.20650148258027911652E-13   -0.59452442968677132740E-13
change in fa due to symmetrization =     0.10003109451872660429E-12   -0.61450844413002414512E-13   -0.26645352591003756970E-13
change in fa due to symmetrization =    -0.46407322429331543390E-13   -0.18651746813702629879E-13   -0.60007554480989711010E-13
change in fa due to symmetrization =     0.10258460747536446434E-12    0.61950444774083734956E-13   -0.27311486405778850894E-13
change in fa due to symmetrization =     0.33306690738754696213E-13    0.16542323066914832452E-13   -0.63893335067177758901E-13
change in fa due to symmetrization =    -0.10602629885170244961E-12   -0.59785509876064679702E-13   -0.14765966227514581988E-13
change in fa due to symmetrization =     0.35971225997855071910E-13   -0.16764367671839863760E-13    0.58397731095283234026E-13
change in fa due to symmetrization =    -0.10313971898767704261E-12    0.57176485768195561832E-13    0.24202861936828412581E-13
change in fa due to symmetrization =     0.62783112042552602361E-13    0.10835776720341527835E-12    0.19761969838327786420E-13
change in fa due to symmetrization =     0.63671290462252727593E-13   -0.10769163338864018442E-12   -0.11657341758564143674E-13
change in fa due to symmetrization =     0.12101430968414206291E-13    0.33195668436292180559E-13    0.60451643690839773626E-13
change in fa due to symmetrization =     0.38191672047105384991E-13    0.12129186544029835204E-12    0.62616578588858828880E-13
change in fa due to symmetrization =    -0.12262413306984853989E-12    0.34416913763379852753E-13    0.65059069243034173269E-13
change in fa due to symmetrization =    -0.36970426720017712796E-13   -0.12573275753879897820E-12    0.66169292267659329809E-13
change in fa due to symmetrization =     0.12284617767477357120E-12   -0.34861002973229915369E-13    0.67279515292284486350E-13
change in fa due to symmetrization =     0.41078251911130791996E-13   -0.12306822227969860251E-12   -0.66058269965196814155E-13
change in fa due to symmetrization =     0.15210055437364644604E-13    0.26645352591003756970E-13   -0.62450045135165055399E-13
change in fa due to symmetrization =     0.62616578588858828880E-13    0.10025313912365163560E-12   -0.21649348980190552538E-13
change in fa due to symmetrization =     0.17319479184152442031E-13   -0.34861002973229915369E-13    0.63504757008558954112E-13
change in fa due to symmetrization =    -0.61728400169158703648E-13    0.10746958878371515311E-12    0.18651746813702629879E-13
change in fa due to symmetrization =    -0.15543122344752191566E-13   -0.31308289294429414440E-13   -0.60285110237146000145E-13
change in fa due to symmetrization =    -0.62894134345015118015E-13   -0.10813572259849024704E-12   -0.24202861936828412581E-13
change in fa due to symmetrization =    -0.12767564783189300215E-13    0.27755575615628913511E-13    0.60007554480989711010E-13
change in fa due to symmetrization =     0.62116978227777508437E-13   -0.10569323194431490265E-12    0.19206858326015208149E-13
change in fa due to symmetrization =     0.15210055437364644604E-13    0.26645352591003756970E-13   -0.62450045135165055399E-13
change in fa due to symmetrization =     0.41078251911130791996E-13   -0.12306822227969860251E-12   -0.66058269965196814155E-13
change in fa due to symmetrization =    -0.12273515537231105554E-12   -0.33084646133829664905E-13   -0.67057470687359455042E-13
change in fa due to symmetrization =    -0.36193270602780103218E-13    0.12279066652354231337E-12   -0.77937656328685989138E-13
change in fa due to symmetrization =     0.12206902155753596162E-12    0.32418512319054570980E-13   -0.84154905266586865764E-13
change in fa due to symmetrization =     0.32418512319054570980E-13   -0.17430501486614957685E-13   -0.62005955925314992783E-13
change in fa due to symmetrization =    -0.10147438445073930779E-12    0.59452442968677132740E-13   -0.18984813721090176841E-13
change in fa due to symmetrization =     0.10003109451872660429E-12   -0.61450844413002414512E-13   -0.26645352591003756970E-13
change in fa due to symmetrization =    -0.62894134345015118015E-13   -0.10813572259849024704E-12   -0.24202861936828412581E-13
change in fa due to symmetrization =    -0.12767564783189300215E-13    0.27755575615628913511E-13    0.60007554480989711010E-13
change in fa due to symmetrization =     0.62116978227777508437E-13   -0.10569323194431490265E-12    0.19206858326015208149E-13
change in fa due to symmetrization =     0.15210055437364644604E-13    0.26645352591003756970E-13   -0.62450045135165055399E-13
change in fa due to symmetrization =     0.62616578588858828880E-13    0.10025313912365163560E-12   -0.21649348980190552538E-13
change in fa due to symmetrization =     0.17319479184152442031E-13   -0.34861002973229915369E-13    0.63504757008558954112E-13
change in fa due to symmetrization =    -0.61728400169158703648E-13    0.10746958878371515311E-12    0.18651746813702629879E-13
change in fa due to symmetrization =    -0.15543122344752191566E-13   -0.31308289294429414440E-13   -0.60285110237146000145E-13
Max change in any component of fa due to symmetrization =     0.1257327575E-12
Max relative change =     0.5013245092E-12
change in fa due to symmetrization =    -0.10424994201230219915E-12   -0.59452442968677132740E-13    0.19761969838327786420E-13
change in fa due to symmetrization =    -0.34749980670767399715E-13   -0.19984014443252817728E-13    0.53790305543088834384E-13
change in fa due to symmetrization =     0.10269562977782697999E-12    0.59008353758827070124E-13    0.28976820942716585705E-13
change in fa due to symmetrization =    -0.33750779948604758829E-13    0.20650148258027911652E-13   -0.59452442968677132740E-13
change in fa due to symmetrization =    -0.12273515537231105554E-12   -0.33084646133829664905E-13   -0.67057470687359455042E-13
change in fa due to symmetrization =    -0.36193270602780103218E-13    0.12279066652354231337E-12   -0.77937656328685989138E-13
change in fa due to symmetrization =     0.12206902155753596162E-12    0.32418512319054570980E-13   -0.84154905266586865764E-13
change in fa due to symmetrization =     0.32418512319054570980E-13   -0.17430501486614957685E-13   -0.62005955925314992783E-13
change in fa due to symmetrization =     0.10003109451872660429E-12   -0.61450844413002414512E-13   -0.26645352591003756970E-13
change in fa due to symmetrization =    -0.62894134345015118015E-13   -0.10813572259849024704E-12   -0.24202861936828412581E-13
change in fa due to symmetrization =    -0.12767564783189300215E-13    0.27755575615628913511E-13    0.60007554480989711010E-13
change in fa due to symmetrization =     0.62116978227777508437E-13   -0.10569323194431490265E-12    0.19206858326015208149E-13
Max change in any component of fa due to symmetrization =     0.1257327575E-12
Max relative change =     0.5013245092E-12
old  stress = 
   -0.4317011848E-03    0.1350493658E-17    0.1432050679E-17
    0.1391151240E-17   -0.4317011848E-03   -0.9634191922E-18
change in fa due to symmetrization =     0.62616578588858828880E-13    0.10025313912365163560E-12   -0.21649348980190552538E-13
change in fa due to symmetrization =     0.17319479184152442031E-13   -0.34861002973229915369E-13    0.63504757008558954112E-13
change in fa due to symmetrization =    -0.61728400169158703648E-13    0.10746958878371515311E-12    0.18651746813702629879E-13
change in fa due to symmetrization =    -0.15543122344752191566E-13   -0.31308289294429414440E-13   -0.60285110237146000145E-13
Max change in any component of fa due to symmetrization =     0.1257327575E-12
change in fa due to symmetrization =     0.14988010832439613296E-13   -0.30420110874729289208E-13   -0.64059868520871532382E-13
change in fa due to symmetrization =    -0.64115379672102790209E-13    0.10524914273446484003E-12   -0.23536728122053318657E-13
change in fa due to symmetrization =    -0.14099832412739488063E-13   -0.41411318818518338958E-13    0.64392935428259079345E-13
change in fa due to symmetrization =    -0.62005955925314992783E-13   -0.10891287871572785662E-12    0.15543122344752191566E-13
change in fa due to symmetrization =    -0.14099832412739488063E-13    0.32640556923979602288E-13   -0.59230398363752101432E-13
change in fa due to symmetrization =     0.63671290462252727593E-13   -0.10769163338864018442E-12   -0.11657341758564143674E-13
change in fa due to symmetrization =     0.12101430968414206291E-13    0.33195668436292180559E-13    0.60451643690839773626E-13
change in fa due to symmetrization =     0.38191672047105384991E-13    0.12129186544029835204E-12    0.62616578588858828880E-13
Max relative change =     0.5013245092E-12
old  stress = 
change in fa due to symmetrization =    -0.10147438445073930779E-12    0.59452442968677132740E-13   -0.18984813721090176841E-13
change in fa due to symmetrization =     0.46185277824406512082E-13    0.20872192862952942960E-13    0.58231197641589460545E-13
change in fa due to symmetrization =    -0.10424994201230219915E-12   -0.59452442968677132740E-13    0.19761969838327786420E-13
change in fa due to symmetrization =    -0.34749980670767399715E-13   -0.19984014443252817728E-13    0.53790305543088834384E-13
change in fa due to symmetrization =     0.10269562977782697999E-12    0.59008353758827070124E-13    0.28976820942716585705E-13
change in fa due to symmetrization =    -0.33750779948604758829E-13    0.20650148258027911652E-13   -0.59452442968677132740E-13
change in fa due to symmetrization =    -0.12262413306984853989E-12    0.34416913763379852753E-13    0.65059069243034173269E-13
change in fa due to symmetrization =    -0.36970426720017712796E-13   -0.12573275753879897820E-12    0.66169292267659329809E-13
change in fa due to symmetrization =     0.12284617767477357120E-12   -0.34861002973229915369E-13    0.67279515292284486350E-13
change in fa due to symmetrization =     0.41078251911130791996E-13   -0.12306822227969860251E-12   -0.66058269965196814155E-13
change in fa due to symmetrization =    -0.12273515537231105554E-12   -0.33084646133829664905E-13   -0.67057470687359455042E-13
change in fa due to symmetrization =    -0.36193270602780103218E-13    0.12279066652354231337E-12   -0.77937656328685989138E-13
change in fa due to symmetrization =     0.12206902155753596162E-12    0.32418512319054570980E-13   -0.84154905266586865764E-13
change in fa due to symmetrization =     0.32418512319054570980E-13   -0.17430501486614957685E-13   -0.62005955925314992783E-13
change in fa due to symmetrization =     0.15210055437364644604E-13    0.26645352591003756970E-13   -0.62450045135165055399E-13
change in fa due to symmetrization =     0.62616578588858828880E-13    0.10025313912365163560E-12   -0.21649348980190552538E-13
change in fa due to symmetrization =     0.17319479184152442031E-13   -0.34861002973229915369E-13    0.63504757008558954112E-13
change in fa due to symmetrization =    -0.61728400169158703648E-13    0.10746958878371515311E-12    0.18651746813702629879E-13
change in fa due to symmetrization =    -0.15543122344752191566E-13   -0.31308289294429414440E-13   -0.60285110237146000145E-13
Max change in any component of fa due to symmetrization =     0.1257327575E-12
Max relative change =     0.5013245092E-12
    0.1386310900E-17   -0.8211176570E-18   -0.4317011848E-03
stress with symmetrization = 
   -0.4317011848E-03    0.0000000000E+00    0.0000000000E+00
    0.0000000000E+00   -0.4317011848E-03    0.0000000000E+00
    0.0000000000E+00    0.0000000000E+00   -0.4317011848E-03
change in components of stress due to symmetrization = 
   -0.5773376568E-16   -0.1350493658E-17   -0.1432050679E-17
   -0.1391151240E-17   -0.8023096076E-16    0.9634191922E-18
change in fa due to symmetrization =     0.46185277824406512082E-13    0.20872192862952942960E-13    0.58231197641589460545E-13
change in fa due to symmetrization =    -0.10424994201230219915E-12   -0.59452442968677132740E-13    0.19761969838327786420E-13
old  stress = 
   -0.4317011848E-03    0.1350493658E-17    0.1432050679E-17
    0.1391151240E-17   -0.4317011848E-03   -0.9634191922E-18
    0.1386310900E-17   -0.8211176570E-18   -0.4317011848E-03
stress with symmetrization = 
   -0.4317011848E-03    0.0000000000E+00    0.0000000000E+00
   -0.4317011848E-03    0.1350493658E-17    0.1432050679E-17
    0.1391151240E-17   -0.4317011848E-03   -0.9634191922E-18
    0.1386310900E-17   -0.8211176570E-18   -0.4317011848E-03
stress with symmetrization = 
   -0.4317011848E-03    0.0000000000E+00    0.0000000000E+00
    0.0000000000E+00   -0.4317011848E-03    0.0000000000E+00
    0.0000000000E+00    0.0000000000E+00   -0.4317011848E-03
change in components of stress due to symmetrization = 
   -0.5773376568E-16   -0.1350493658E-17   -0.1432050679E-17
   -0.1391151240E-17   -0.8023096076E-16    0.9634191922E-18
   -0.1386310900E-17    0.8211176570E-18    0.1385068275E-15
    0.0000000000E+00   -0.4317011848E-03    0.0000000000E+00
change in fa due to symmetrization =     0.12101430968414206291E-13    0.33195668436292180559E-13    0.60451643690839773626E-13
change in fa due to symmetrization =     0.38191672047105384991E-13    0.12129186544029835204E-12    0.62616578588858828880E-13
change in fa due to symmetrization =    -0.12262413306984853989E-12    0.34416913763379852753E-13    0.65059069243034173269E-13
change in fa due to symmetrization =    -0.36970426720017712796E-13   -0.12573275753879897820E-12    0.66169292267659329809E-13
change in fa due to symmetrization =     0.12284617767477357120E-12   -0.34861002973229915369E-13    0.67279515292284486350E-13
change in fa due to symmetrization =     0.41078251911130791996E-13   -0.12306822227969860251E-12   -0.66058269965196814155E-13
change in fa due to symmetrization =    -0.12273515537231105554E-12   -0.33084646133829664905E-13   -0.67057470687359455042E-13
change in fa due to symmetrization =    -0.36193270602780103218E-13    0.12279066652354231337E-12   -0.77937656328685989138E-13
change in fa due to symmetrization =     0.12206902155753596162E-12    0.32418512319054570980E-13   -0.84154905266586865764E-13
change in fa due to symmetrization =     0.32418512319054570980E-13   -0.17430501486614957685E-13   -0.62005955925314992783E-13
change in fa due to symmetrization =    -0.10147438445073930779E-12    0.59452442968677132740E-13   -0.18984813721090176841E-13
change in fa due to symmetrization =    -0.10147438445073930779E-12    0.59452442968677132740E-13   -0.18984813721090176841E-13
change in fa due to symmetrization =     0.46185277824406512082E-13    0.20872192862952942960E-13    0.58231197641589460545E-13
change in fa due to symmetrization =    -0.10424994201230219915E-12   -0.59452442968677132740E-13    0.19761969838327786420E-13
change in fa due to symmetrization =    -0.34749980670767399715E-13   -0.19984014443252817728E-13    0.53790305543088834384E-13
change in fa due to symmetrization =     0.10269562977782697999E-12    0.59008353758827070124E-13    0.28976820942716585705E-13
change in fa due to symmetrization =    -0.33750779948604758829E-13    0.20650148258027911652E-13   -0.59452442968677132740E-13
change in fa due to symmetrization =     0.10003109451872660429E-12   -0.61450844413002414512E-13   -0.26645352591003756970E-13
change in fa due to symmetrization =    -0.62894134345015118015E-13   -0.10813572259849024704E-12   -0.24202861936828412581E-13
change in fa due to symmetrization =    -0.12767564783189300215E-13    0.27755575615628913511E-13    0.60007554480989711010E-13
change in fa due to symmetrization =     0.62116978227777508437E-13   -0.10569323194431490265E-12    0.19206858326015208149E-13
old  stress = 
   -0.4317011848E-03    0.1350493658E-17    0.1432050679E-17
    0.1391151240E-17   -0.4317011848E-03   -0.9634191922E-18
    0.1386310900E-17   -0.8211176570E-18   -0.4317011848E-03
stress with symmetrization = 
   -0.4317011848E-03    0.0000000000E+00    0.0000000000E+00
    0.0000000000E+00   -0.4317011848E-03    0.0000000000E+00
    0.0000000000E+00    0.0000000000E+00   -0.4317011848E-03
change in components of stress due to symmetrization = 
   -0.5773376568E-16   -0.1350493658E-17   -0.1432050679E-17
   -0.1386310900E-17    0.8211176570E-18    0.1385068275E-15
Max change in any component of stress due to symmetrization =     0.1385068275E-15
change in fa due to symmetrization =     0.10003109451872660429E-12   -0.61450844413002414512E-13   -0.26645352591003756970E-13
change in fa due to symmetrization =    -0.62894134345015118015E-13   -0.10813572259849024704E-12   -0.24202861936828412581E-13
change in fa due to symmetrization =    -0.12767564783189300215E-13    0.27755575615628913511E-13    0.60007554480989711010E-13
change in fa due to symmetrization =     0.62116978227777508437E-13   -0.10569323194431490265E-12    0.19206858326015208149E-13
change in fa due to symmetrization =     0.15210055437364644604E-13    0.26645352591003756970E-13   -0.62450045135165055399E-13
change in fa due to symmetrization =     0.62616578588858828880E-13    0.10025313912365163560E-12   -0.21649348980190552538E-13
change in fa due to symmetrization =     0.17319479184152442031E-13   -0.34861002973229915369E-13    0.63504757008558954112E-13
change in fa due to symmetrization =    -0.61728400169158703648E-13    0.10746958878371515311E-12    0.18651746813702629879E-13
change in fa due to symmetrization =    -0.15543122344752191566E-13   -0.31308289294429414440E-13   -0.60285110237146000145E-13
Max change in any component of fa due to symmetrization =     0.1257327575E-12
Max relative change =     0.5013245092E-12
Max change in any component of stress due to symmetrization =     0.1385068275E-15
old  stress = 
   -0.4317011848E-03    0.1350493658E-17    0.1432050679E-17
    0.1391151240E-17   -0.4317011848E-03   -0.9634191922E-18
    0.1386310900E-17   -0.8211176570E-18   -0.4317011848E-03
stress with symmetrization = 
change in fa due to symmetrization =     0.46185277824406512082E-13    0.20872192862952942960E-13    0.58231197641589460545E-13
change in fa due to symmetrization =    -0.10424994201230219915E-12   -0.59452442968677132740E-13    0.19761969838327786420E-13
change in fa due to symmetrization =     0.15210055437364644604E-13    0.26645352591003756970E-13   -0.62450045135165055399E-13
change in fa due to symmetrization =     0.62616578588858828880E-13    0.10025313912365163560E-12   -0.21649348980190552538E-13
change in fa due to symmetrization =     0.17319479184152442031E-13   -0.34861002973229915369E-13    0.63504757008558954112E-13
change in fa due to symmetrization =    -0.61728400169158703648E-13    0.10746958878371515311E-12    0.18651746813702629879E-13
change in fa due to symmetrization =    -0.15543122344752191566E-13   -0.31308289294429414440E-13   -0.60285110237146000145E-13
Max change in any component of fa due to symmetrization =     0.1257327575E-12
Max relative change =     0.5013245092E-12
   -0.1391151240E-17   -0.8023096076E-16    0.9634191922E-18
   -0.1386310900E-17    0.8211176570E-18    0.1385068275E-15
Max change in any component of stress due to symmetrization =     0.1385068275E-15
change in fa due to symmetrization =    -0.34749980670767399715E-13   -0.19984014443252817728E-13    0.53790305543088834384E-13
change in fa due to symmetrization =     0.10269562977782697999E-12    0.59008353758827070124E-13    0.28976820942716585705E-13
change in fa due to symmetrization =    -0.33750779948604758829E-13    0.20650148258027911652E-13   -0.59452442968677132740E-13
change in fa due to symmetrization =     0.10003109451872660429E-12   -0.61450844413002414512E-13   -0.26645352591003756970E-13
change in fa due to symmetrization =    -0.62894134345015118015E-13   -0.10813572259849024704E-12   -0.24202861936828412581E-13
change in fa due to symmetrization =    -0.12767564783189300215E-13    0.27755575615628913511E-13    0.60007554480989711010E-13
change in fa due to symmetrization =     0.62116978227777508437E-13   -0.10569323194431490265E-12    0.19206858326015208149E-13
change in fa due to symmetrization =     0.15210055437364644604E-13    0.26645352591003756970E-13   -0.62450045135165055399E-13
change in fa due to symmetrization =     0.62616578588858828880E-13    0.10025313912365163560E-12   -0.21649348980190552538E-13
change in fa due to symmetrization =     0.17319479184152442031E-13   -0.34861002973229915369E-13    0.63504757008558954112E-13
change in fa due to symmetrization =    -0.61728400169158703648E-13    0.10746958878371515311E-12    0.18651746813702629879E-13
change in fa due to symmetrization =    -0.15543122344752191566E-13   -0.31308289294429414440E-13   -0.60285110237146000145E-13
Max change in any component of fa due to symmetrization =     0.1257327575E-12
Max relative change =     0.5013245092E-12
    0.0000000000E+00    0.0000000000E+00   -0.4317011848E-03
change in components of stress due to symmetrization = 
   -0.5773376568E-16   -0.1350493658E-17   -0.1432050679E-17
   -0.1391151240E-17   -0.8023096076E-16    0.9634191922E-18
   -0.1386310900E-17    0.8211176570E-18    0.1385068275E-15
Max change in any component of stress due to symmetrization =     0.1385068275E-15
   -0.4317011848E-03    0.0000000000E+00    0.0000000000E+00
    0.0000000000E+00   -0.4317011848E-03    0.0000000000E+00
    0.0000000000E+00    0.0000000000E+00   -0.4317011848E-03
change in components of stress due to symmetrization = 
old  stress = 
   -0.4317011848E-03    0.1350493658E-17    0.1432050679E-17
    0.1391151240E-17   -0.4317011848E-03   -0.9634191922E-18
    0.1386310900E-17   -0.8211176570E-18   -0.4317011848E-03
stress with symmetrization = 
   -0.4317011848E-03    0.0000000000E+00    0.0000000000E+00
    0.0000000000E+00   -0.4317011848E-03    0.0000000000E+00
    0.0000000000E+00    0.0000000000E+00   -0.4317011848E-03
change in components of stress due to symmetrization = 
old  stress = 
   -0.4317011848E-03    0.1350493658E-17    0.1432050679E-17
    0.1391151240E-17   -0.4317011848E-03   -0.9634191922E-18
    0.1386310900E-17   -0.8211176570E-18   -0.4317011848E-03
stress with symmetrization = 
   -0.4317011848E-03    0.0000000000E+00    0.0000000000E+00
   -0.5773376568E-16   -0.1350493658E-17   -0.1432050679E-17
   -0.5773376568E-16   -0.1350493658E-17   -0.1432050679E-17
   -0.1391151240E-17   -0.8023096076E-16    0.9634191922E-18
change in fa due to symmetrization =    -0.34749980670767399715E-13   -0.19984014443252817728E-13    0.53790305543088834384E-13
change in fa due to symmetrization =     0.10269562977782697999E-12    0.59008353758827070124E-13    0.28976820942716585705E-13
change in fa due to symmetrization =    -0.33750779948604758829E-13    0.20650148258027911652E-13   -0.59452442968677132740E-13
change in fa due to symmetrization =     0.10003109451872660429E-12   -0.61450844413002414512E-13   -0.26645352591003756970E-13
change in fa due to symmetrization =    -0.62894134345015118015E-13   -0.10813572259849024704E-12   -0.24202861936828412581E-13
    0.0000000000E+00   -0.4317011848E-03    0.0000000000E+00
    0.0000000000E+00    0.0000000000E+00   -0.4317011848E-03
change in components of stress due to symmetrization = 
   -0.5773376568E-16   -0.1350493658E-17   -0.1432050679E-17
   -0.1391151240E-17   -0.8023096076E-16    0.9634191922E-18
   -0.1386310900E-17    0.8211176570E-18    0.1385068275E-15
Max change in any component of stress due to symmetrization =     0.1385068275E-15
change in fa due to symmetrization =    -0.12767564783189300215E-13    0.27755575615628913511E-13    0.60007554480989711010E-13
change in fa due to symmetrization =     0.62116978227777508437E-13   -0.10569323194431490265E-12    0.19206858326015208149E-13
   -0.1386310900E-17    0.8211176570E-18    0.1385068275E-15
Max change in any component of stress due to symmetrization =     0.1385068275E-15
change in fa due to symmetrization =     0.15210055437364644604E-13    0.26645352591003756970E-13   -0.62450045135165055399E-13
change in fa due to symmetrization =     0.62616578588858828880E-13    0.10025313912365163560E-12   -0.21649348980190552538E-13
change in fa due to symmetrization =     0.17319479184152442031E-13   -0.34861002973229915369E-13    0.63504757008558954112E-13
change in fa due to symmetrization =    -0.61728400169158703648E-13    0.10746958878371515311E-12    0.18651746813702629879E-13
change in fa due to symmetrization =    -0.15543122344752191566E-13   -0.31308289294429414440E-13   -0.60285110237146000145E-13
Max change in any component of fa due to symmetrization =     0.1257327575E-12
Max relative change =     0.5013245092E-12
old  stress = 
   -0.4317011848E-03    0.1350493658E-17    0.1432050679E-17
    0.1391151240E-17   -0.4317011848E-03   -0.9634191922E-18
    0.1386310900E-17   -0.8211176570E-18   -0.4317011848E-03
stress with symmetrization = 
   -0.4317011848E-03    0.0000000000E+00    0.0000000000E+00
    0.0000000000E+00   -0.4317011848E-03    0.0000000000E+00
    0.0000000000E+00    0.0000000000E+00   -0.4317011848E-03
change in components of stress due to symmetrization = 
   -0.5773376568E-16   -0.1350493658E-17   -0.1432050679E-17
   -0.1391151240E-17   -0.8023096076E-16    0.9634191922E-18
   -0.1386310900E-17    0.8211176570E-18    0.1385068275E-15
Max change in any component of stress due to symmetrization =     0.1385068275E-15
   -0.1391151240E-17   -0.8023096076E-16    0.9634191922E-18
   -0.1386310900E-17    0.8211176570E-18    0.1385068275E-15
Max change in any component of stress due to symmetrization =     0.1385068275E-15

siesta: Atomic forces (eV/Ang):
----------------------------------------
   Tot    0.000000    0.000000    0.000000
----------------------------------------
   Max   18.182104
   Res   14.522448    sqrt( Sum f_i^2 / 3N )
----------------------------------------
   Max   18.182104    constrained

Stress-tensor-Voigt (kbar):      -63.51      -63.51      -63.51        0.00        0.00        0.00
(Free)E + p*V (eV/cell)     -667.7620
Target enthalpy (eV/cell)     -688.0563

siesta: Program's energy decomposition (eV):
siesta: Ebs     =         0.000000
siesta: Eions   =       945.951434
siesta: Ena     =       370.293805
siesta: Ekin    =       606.891014
siesta: Enl     =      -252.548027
siesta: Eso     =         0.000000
siesta: Eldau   =         0.000000
siesta: DEna    =         0.000008
siesta: DUscf   =         0.000000
siesta: DUext   =         0.000000
siesta: Enegf   =         0.000000
siesta: Exc     =      -466.741704
siesta: eta*DQ  =         0.000000
siesta: Emadel  =         0.000000
siesta: Emeta   =         0.000000
siesta: Emolmec =         0.000000
siesta: Ekinion =         0.000000
siesta: Eharris =         0.000000
siesta: Etot    =      -688.056338
siesta: FreeEng =      -688.056338

siesta: Final energy (eV):
siesta:  Band Struct. =       0.000000
siesta:       Kinetic =     606.891014
siesta:       Hartree =    1122.424257
siesta:       Eldau   =       0.000000
siesta:       Eso     =       0.000000
siesta:    Ext. field =       0.000000
siesta:       Enegf   =       0.000000
siesta:   Exch.-corr. =    -466.741704
siesta:  Ion-electron =   -3202.509697
siesta:       Ion-ion =    1251.879792
siesta:       Ekinion =       0.000000
siesta:         Total =    -688.056338
siesta:         Fermi =       0.000000

siesta: Atomic forces (eV/Ang):
siesta:      1   18.182104    6.448410  -16.141052
siesta:      2  -16.141052   18.182104    6.448410
siesta:      3  -18.182104   -6.448410  -16.141052
siesta:      4  -18.182104    6.448410   16.141052
siesta:      5    6.448410   18.182104   16.141052
siesta:      6    6.448410  -16.141052   18.182104
siesta:      7  -16.141052  -18.182104   -6.448410
siesta:      8   16.141052  -18.182104    6.448410
siesta:      9   16.141052    6.448410   18.182104
siesta:     10   18.182104   -6.448410   16.141052
siesta:     11   -6.448410  -18.182104   16.141052
siesta:     12   16.141052   18.182104   -6.448410
siesta:     13   -6.448410   18.182104  -16.141052
siesta:     14   18.182104  -16.141052   -6.448410
siesta:     15    6.448410  -18.182104  -16.141052
siesta:     16   -6.448410  -16.141052  -18.182104
siesta:     17    6.448410   16.141052  -18.182104
siesta:     18   18.182104   16.141052    6.448410
siesta:     19   16.141052   -6.448410  -18.182104
siesta:     20   -6.448410   16.141052   18.182104
siesta:     21  -16.141052   -6.448410   18.182104
siesta:     22  -16.141052    6.448410  -18.182104
siesta:     23  -18.182104   16.141052   -6.448410
siesta:     24  -18.182104  -16.141052    6.448410
siesta:     25  -18.182104   -6.448410   16.141052
siesta:     26   16.141052  -18.182104   -6.448410
siesta:     27   18.182104    6.448410   16.141052
siesta:     28   18.182104   -6.448410  -16.141052
siesta:     29   -6.448410  -18.182104  -16.141052
siesta:     30   -6.448410   16.141052  -18.182104
siesta:     31   16.141052   18.182104    6.448410
siesta:     32  -16.141052   18.182104   -6.448410
siesta:     33  -16.141052   -6.448410  -18.182104
siesta:     34  -18.182104    6.448410  -16.141052
siesta:     35    6.448410   18.182104  -16.141052
siesta:     36  -16.141052  -18.182104    6.448410
siesta:     37    6.448410  -18.182104   16.141052
siesta:     38  -18.182104   16.141052    6.448410
siesta:     39   -6.448410   18.182104   16.141052
siesta:     40    6.448410   16.141052   18.182104
siesta:     41   -6.448410  -16.141052   18.182104
siesta:     42  -18.182104  -16.141052   -6.448410
siesta:     43  -16.141052    6.448410   18.182104
siesta:     44    6.448410  -16.141052  -18.182104
siesta:     45   16.141052    6.448410  -18.182104
siesta:     46   16.141052   -6.448410   18.182104
siesta:     47   18.182104  -16.141052    6.448410
siesta:     48   18.182104   16.141052   -6.448410
siesta: ----------------------------------------
siesta:    Tot    0.000000    0.000000    0.000000

siesta: Stress tensor (static) (eV/Ang**3):
siesta:    -0.039637    0.000000    0.000000
siesta:     0.000000   -0.039637    0.000000
siesta:     0.000000    0.000000   -0.039637

siesta: Cell volume =        512.000000 Ang**3

siesta: Pressure (static):
siesta:                Solid            Molecule  Units
siesta:           0.00043170         -0.00000487  Ry/Bohr**3
siesta:           0.03963733         -0.00044718  eV/Ang**3
siesta:          63.50669790         -0.71647146  kBar
(Free)E+ p_basis*V_orbitals  =        -677.553326
(Free)Eharris+ p_basis*V_orbitals  =          10.503012

>> End of run:   2-APR-2019  17:13:42
Job completed
