Siesta Version  : trunk-755
Architecture    : unknown
Compiler version: GNU Fortran (Ubuntu 5.4.0-6ubuntu1~16.04.10) 5.4.0 20160609
Compiler flags  : mpif90 -O2 -fPIC -ftree-vectorize
PP flags        : -DFC_HAVE_ABORT -DMPI -DFC_HAVE_FLUSH -DFC_HAVE_ABORT -DGRID_DP -DPHI_GRID_SP -DSIESTA__HAS__SPGLIB  -DSIESTA__DIAG_2STAGE
Libraries       : libsiestaLAPACK.a libsiestaBLAS.a libfdict.a  /usr/lib/libscalapack-openmpi.so   libsiestaLAPACK.a libsiestaBLAS.a libfdict.a /usr/lib/libblacsF77init-openmpi.so /usr/lib/libblacsCinit-openmpi.so /usr/lib/libblacs-openmpi.so
Directory       : /home/ICN2/aakhtar/Projects/spglib-inclusion/Obj-spg/Tests/Space_Group/06-cubic-cP.29-spg223/work
PARALLEL version

* Running on 8 nodes in parallel
>> Start of run:   2-APR-2019  17:13:42

                           ***********************       
                           *  WELCOME TO SIESTA  *       
                           ***********************       

reinit: Reading from ../06-cubic-cP.29-spg223.fdf

reinit: -----------------------------------------------------------------------
reinit: System Name: 
reinit: -----------------------------------------------------------------------
reinit: System Label: 06-cubic-cP.29-spg223.inp
reinit: -----------------------------------------------------------------------

initatom: Reading input for the pseudopotentials and atomic orbitals ----------
Species number:   1 Atomic number:    1 Label: H

Ground state valence configuration:   1s01
Reading pseudopotential information in formatted form from H.psf

Valence configuration for pseudopotential generation:
1s( 1.00) rc: 1.25
2p( 0.00) rc: 1.25
3d( 0.00) rc: 1.25
4f( 0.00) rc: 1.25
For H, standard SIESTA heuristics set lmxkb to 2
 (one more than the basis l, including polarization orbitals).
Use PS.lmax or PS.KBprojectors blocks to override.

<basis_specs>
===============================================================================
H                    Z=   1    Mass=  1.0100        Charge= 0.17977+309
Lmxo=0 Lmxkb= 2    BasisType=split      Semic=F
L=0  Nsemic=0  Cnfigmx=1
          n=1  nzeta=2  polorb=1
            splnorm:   0.15000    
               vcte:    0.0000    
               rinn:    0.0000    
               qcoe:    0.0000    
               qyuk:    0.0000    
               qwid:   0.10000E-01
                rcs:    0.0000      0.0000    
            lambdas:    1.0000      1.0000    
-------------------------------------------------------------------------------
L=0  Nkbl=1  erefs: 0.17977+309
L=1  Nkbl=1  erefs: 0.17977+309
L=2  Nkbl=1  erefs: 0.17977+309
===============================================================================
</basis_specs>

atom: Called for H                     (Z =   1)

read_vps: Pseudopotential generation method:
read_vps: ATM3      Troullier-Martins                       
Total valence charge:    1.00000

xc_check: Exchange-correlation functional:
xc_check: Ceperley-Alder
V l=0 = -2*Zval/r beyond r=  1.2343
V l=1 = -2*Zval/r beyond r=  1.2189
V l=2 = -2*Zval/r beyond r=  1.2189
All V_l potentials equal beyond r=  1.2343
This should be close to max(r_c) in ps generation
All pots = -2*Zval/r beyond r=  1.2343

VLOCAL1: 99.0% of the norm of Vloc inside     28.493 Ry
VLOCAL1: 99.9% of the norm of Vloc inside     64.935 Ry
atom: Maximum radius for 4*pi*r*r*local-pseudopot. charge    1.45251
atom: Maximum radius for r*vlocal+2*Zval:    1.21892

KBgen: Kleinman-Bylander projectors: 
GHOST: No ghost state for L =  0
   l= 0   rc=  1.364359   el= -0.467325   Ekb= -2.005361   kbcos= -0.336422
GHOST: No ghost state for L =  1
   l= 1   rc=  1.434438   el=  0.001430   Ekb= -0.501708   kbcos= -0.021697
GHOST: No ghost state for L =  2
   l= 2   rc=  1.470814   el=  0.002365   Ekb= -0.190555   kbcos= -0.002281

KBgen: Total number of  Kleinman-Bylander projectors:    9
atom: -------------------------------------------------------------------------

atom: SANKEY-TYPE ORBITALS:
atom: Selected multiple-zeta basis: split     

SPLIT: Orbitals with angular momentum L= 0

SPLIT: Basis orbitals for state 1s

SPLIT: PAO cut-off radius determined from an
SPLIT: energy shift=  0.020000 Ry

   izeta = 1
                 lambda =    1.000000
                     rc =    4.828263
                 energy =   -0.449375
                kinetic =    0.929372
    potential(screened) =   -1.378747
       potential(ionic) =   -1.915047

   izeta = 2
                 rmatch =    3.854947
              splitnorm =    0.150000
                 energy =   -0.336153
                kinetic =    1.505294
    potential(screened) =   -1.841447
       potential(ionic) =   -2.413582

POLgen: Perturbative polarization orbital with L=  1

POLgen: Polarization orbital for state 1s

   izeta = 1
                     rc =    4.828263
                 energy =    0.706972
                kinetic =    1.396397
    potential(screened) =   -0.689424
       potential(ionic) =   -1.169792
atom: Total number of Sankey-type orbitals:  5

atm_pop: Valence configuration (for local Pseudopot. screening):
 1s( 1.00)                                                            
Vna: chval, zval:    1.00000   1.00000

Vna:  Cut-off radius for the neutral-atom potential:   4.828263

atom: _________________________________________________________________________

prinput: Basis input ----------------------------------------------------------

PAO.BasisType split     

%block ChemicalSpeciesLabel
    1    1 H                       # Species index, atomic number, species label
%endblock ChemicalSpeciesLabel

%block PAO.Basis                 # Define Basis set
H                     1                    # Species label, number of l-shells
 n=1   0   2 P   1                   # n, l, Nzeta, Polarization, NzetaPol
   4.828      3.855   
   1.000      1.000   
%endblock PAO.Basis

prinput: ----------------------------------------------------------------------

coor:   Atomic-coordinates input format  =     Fractional

siesta: Atomic coordinates (Bohr) and species
siesta:      2.57003   2.26767   1.66296  1        1
siesta:      1.66296   2.57003   2.26767  1        2
siesta:     12.54779  12.85014   1.66296  1        3
siesta:     12.54779   2.26767  13.45486  1        4
siesta:      9.82658  10.12894   5.89595  1        5
siesta:      2.26767   1.66296   2.57003  1        6
siesta:      1.66296  12.54779  12.85014  1        7
siesta:     13.45486  12.54779   2.26767  1        8
siesta:      5.89595   9.82658  10.12894  1        9
siesta:      2.57003  12.85014  13.45486  1       10
siesta:      5.29124   4.98888   5.89595  1       11
siesta:     13.45486   2.57003  12.85014  1       12
siesta:      5.29124  10.12894   9.22187  1       13
siesta:     10.12894   9.22187   5.29124  1       14
siesta:      9.82658   4.98888   9.22187  1       15
siesta:     12.85014   1.66296  12.54779  1       16
siesta:      2.26767  13.45486  12.54779  1       17
siesta:     10.12894   5.89595   9.82658  1       18
siesta:      5.89595   5.29124   4.98888  1       19
siesta:     12.85014  13.45486   2.57003  1       20
siesta:      9.22187   5.29124  10.12894  1       21
siesta:      9.22187   9.82658   4.98888  1       22
siesta:      4.98888   5.89595   5.29124  1       23
siesta:      4.98888   9.22187   9.82658  1       24
siesta:     12.54779  12.85014  13.45486  1       25
siesta:     13.45486  12.54779  12.85014  1       26
siesta:      2.57003   2.26767  13.45486  1       27
siesta:      2.57003  12.85014   1.66296  1       28
siesta:      5.29124   4.98888   9.22187  1       29
siesta:     12.85014  13.45486  12.54779  1       30
siesta:     13.45486   2.57003   2.26767  1       31
siesta:      1.66296   2.57003  12.85014  1       32
siesta:      9.22187   5.29124   4.98888  1       33
siesta:     12.54779   2.26767   1.66296  1       34
siesta:      9.82658  10.12894   9.22187  1       35
siesta:      1.66296  12.54779   2.26767  1       36
siesta:      9.82658   4.98888   5.89595  1       37
siesta:      4.98888   5.89595   9.82658  1       38
siesta:      5.29124  10.12894   5.89595  1       39
siesta:      2.26767  13.45486   2.57003  1       40
siesta:     12.85014   1.66296   2.57003  1       41
siesta:      4.98888   9.22187   5.29124  1       42
siesta:      9.22187   9.82658  10.12894  1       43
siesta:      2.26767   1.66296  12.54779  1       44
siesta:      5.89595   9.82658   4.98888  1       45
siesta:      5.89595   5.29124  10.12894  1       46
siesta:     10.12894   9.22187   9.82658  1       47
siesta:     10.12894   5.89595   5.29124  1       48

siesta: System type = bulk      

initatomlists: Number of atoms, orbitals, and projectors:     48   240   432

----------------------------------------------------------------------
 Output of crystal symmetries 

 Int Sp Group number =    223
 Int Sp Group symbol = Pm-3n      
 Bravais lattice is    221  Pm-3m      
 Hall number =    520

 number of symops =     48
 symops and translations in reduced coordinates = 
     1     0     0
     0     1     0
     0     0     1
    0.0000000000E+00      0.0000000000E+00      0.0000000000E+00

    -1     0     0
     0    -1     0
     0     0    -1
    0.0000000000E+00      0.1110223025E-15      0.0000000000E+00

     0     1     0
    -1     0     0
     0     0     1
    0.5000000000E+00      0.5000000000E+00      0.5000000000E+00

     0    -1     0
     1     0     0
     0     0    -1
    0.5000000000E+00      0.5000000000E+00      0.5000000000E+00

    -1     0     0
     0    -1     0
     0     0     1
    0.0000000000E+00      0.1110223025E-15      0.0000000000E+00

     1     0     0
     0     1     0
     0     0    -1
    0.0000000000E+00      0.0000000000E+00      0.0000000000E+00

     0    -1     0
     1     0     0
     0     0     1
    0.5000000000E+00      0.5000000000E+00      0.5000000000E+00

     0     1     0
    -1     0     0
     0     0    -1
    0.5000000000E+00      0.5000000000E+00      0.5000000000E+00

     1     0     0
     0    -1     0
     0     0    -1
    0.0000000000E+00      0.1110223025E-15      0.0000000000E+00

    -1     0     0
     0     1     0
     0     0     1
    0.0000000000E+00      0.0000000000E+00      0.0000000000E+00

     0    -1     0
    -1     0     0
     0     0    -1
    0.5000000000E+00      0.5000000000E+00      0.5000000000E+00

     0     1     0
     1     0     0
     0     0     1
    0.5000000000E+00      0.5000000000E+00      0.5000000000E+00

    -1     0     0
     0     1     0
     0     0    -1
    0.0000000000E+00      0.0000000000E+00      0.0000000000E+00

     1     0     0
     0    -1     0
     0     0     1
    0.0000000000E+00      0.1110223025E-15      0.0000000000E+00

     0     1     0
     1     0     0
     0     0    -1
    0.5000000000E+00      0.5000000000E+00      0.5000000000E+00

     0    -1     0
    -1     0     0
     0     0     1
    0.5000000000E+00      0.5000000000E+00      0.5000000000E+00

     0     1     0
     0     0     1
     1     0     0
    0.0000000000E+00      0.1110223025E-15      0.1000000000E+01

     0    -1     0
     0     0    -1
    -1     0     0
    0.0000000000E+00      0.1110223025E-15      0.1110223025E-15

     0     0     1
     0    -1     0
     1     0     0
    0.5000000000E+00      0.5000000000E+00      0.5000000000E+00

     0     0    -1
     0     1     0
    -1     0     0
    0.5000000000E+00      0.5000000000E+00      0.5000000000E+00

     0    -1     0
     0     0    -1
     1     0     0
    0.0000000000E+00      0.1110223025E-15      0.1110223025E-15

     0     1     0
     0     0     1
    -1     0     0
    0.0000000000E+00      0.1110223025E-15      0.1000000000E+01

     0     0    -1
     0     1     0
     1     0     0
    0.5000000000E+00      0.5000000000E+00      0.5000000000E+00

     0     0     1
     0    -1     0
    -1     0     0
    0.5000000000E+00      0.5000000000E+00      0.5000000000E+00

     0     1     0
     0     0    -1
    -1     0     0
    0.0000000000E+00      0.1110223025E-15      0.1110223025E-15

     0    -1     0
     0     0     1
     1     0     0
    0.0000000000E+00      0.1110223025E-15      0.1000000000E+01

     0     0    -1
     0    -1     0
    -1     0     0
    0.5000000000E+00      0.5000000000E+00      0.5000000000E+00

     0     0     1
     0     1     0
     1     0     0
    0.5000000000E+00      0.5000000000E+00      0.5000000000E+00

     0    -1     0
     0     0     1
    -1     0     0
    0.0000000000E+00      0.1110223025E-15      0.1000000000E+01

     0     1     0
     0     0    -1
     1     0     0
    0.0000000000E+00      0.1110223025E-15      0.1110223025E-15

     0     0     1
     0     1     0
    -1     0     0
    0.5000000000E+00      0.5000000000E+00      0.5000000000E+00

     0     0    -1
     0    -1     0
     1     0     0
    0.5000000000E+00      0.5000000000E+00      0.5000000000E+00

     0     0     1
     1     0     0
     0     1     0
    0.1000000000E+01      0.1110223025E-15      0.0000000000E+00

     0     0    -1
    -1     0     0
     0    -1     0
    0.1110223025E-15      0.1110223025E-15      0.0000000000E+00

     1     0     0
     0     0    -1
     0     1     0
    0.5000000000E+00      0.5000000000E+00      0.5000000000E+00

    -1     0     0
     0     0     1
     0    -1     0
    0.5000000000E+00      0.5000000000E+00      0.5000000000E+00

     0     0    -1
    -1     0     0
     0     1     0
    0.1110223025E-15      0.1110223025E-15      0.0000000000E+00

     0     0     1
     1     0     0
     0    -1     0
    0.1000000000E+01      0.1110223025E-15      0.0000000000E+00

    -1     0     0
     0     0     1
     0     1     0
    0.5000000000E+00      0.5000000000E+00      0.5000000000E+00

     1     0     0
     0     0    -1
     0    -1     0
    0.5000000000E+00      0.5000000000E+00      0.5000000000E+00

     0     0     1
    -1     0     0
     0    -1     0
    0.1110223025E-15      0.1110223025E-15      0.0000000000E+00

     0     0    -1
     1     0     0
     0     1     0
    0.1000000000E+01      0.1110223025E-15      0.0000000000E+00

    -1     0     0
     0     0    -1
     0    -1     0
    0.5000000000E+00      0.5000000000E+00      0.5000000000E+00

     1     0     0
     0     0     1
     0     1     0
    0.5000000000E+00      0.5000000000E+00      0.5000000000E+00

     0     0    -1
     1     0     0
     0    -1     0
    0.1000000000E+01      0.1110223025E-15      0.0000000000E+00

     0     0     1
    -1     0     0
     0     1     0
    0.1110223025E-15      0.1110223025E-15      0.0000000000E+00

     1     0     0
     0     0     1
     0    -1     0
    0.5000000000E+00      0.5000000000E+00      0.5000000000E+00

    -1     0     0
     0     0    -1
     0     1     0
    0.5000000000E+00      0.5000000000E+00      0.5000000000E+00

 symops and translations in cartesian coordinates = 
    0.1000000000E+01    0.0000000000E+00    0.0000000000E+00
    0.0000000000E+00    0.1000000000E+01    0.0000000000E+00
    0.0000000000E+00    0.0000000000E+00    0.1000000000E+01
    0.0000000000E+00      0.0000000000E+00      0.0000000000E+00

   -0.1000000000E+01    0.0000000000E+00    0.0000000000E+00
    0.0000000000E+00   -0.1000000000E+01    0.0000000000E+00
    0.0000000000E+00    0.0000000000E+00   -0.1000000000E+01
    0.0000000000E+00      0.1678414632E-14      0.0000000000E+00

    0.0000000000E+00    0.1000000000E+01    0.0000000000E+00
   -0.1000000000E+01    0.0000000000E+00    0.0000000000E+00
    0.0000000000E+00    0.0000000000E+00    0.1000000000E+01
    0.7558907511E+01      0.7558907511E+01      0.7558907511E+01

    0.0000000000E+00   -0.1000000000E+01    0.0000000000E+00
    0.1000000000E+01    0.0000000000E+00    0.0000000000E+00
    0.0000000000E+00    0.0000000000E+00   -0.1000000000E+01
    0.7558907511E+01      0.7558907511E+01      0.7558907511E+01

   -0.1000000000E+01    0.0000000000E+00    0.0000000000E+00
    0.0000000000E+00   -0.1000000000E+01    0.0000000000E+00
    0.0000000000E+00    0.0000000000E+00    0.1000000000E+01
    0.0000000000E+00      0.1678414632E-14      0.0000000000E+00

    0.1000000000E+01    0.0000000000E+00    0.0000000000E+00
    0.0000000000E+00    0.1000000000E+01    0.0000000000E+00
    0.0000000000E+00    0.0000000000E+00   -0.1000000000E+01
    0.0000000000E+00      0.0000000000E+00      0.0000000000E+00

    0.0000000000E+00   -0.1000000000E+01    0.0000000000E+00
    0.1000000000E+01    0.0000000000E+00    0.0000000000E+00
    0.0000000000E+00    0.0000000000E+00    0.1000000000E+01
    0.7558907511E+01      0.7558907511E+01      0.7558907511E+01

    0.0000000000E+00    0.1000000000E+01    0.0000000000E+00
   -0.1000000000E+01    0.0000000000E+00    0.0000000000E+00
    0.0000000000E+00    0.0000000000E+00   -0.1000000000E+01
    0.7558907511E+01      0.7558907511E+01      0.7558907511E+01

    0.1000000000E+01    0.0000000000E+00    0.0000000000E+00
    0.0000000000E+00   -0.1000000000E+01    0.0000000000E+00
    0.0000000000E+00    0.0000000000E+00   -0.1000000000E+01
    0.0000000000E+00      0.1678414632E-14      0.0000000000E+00

   -0.1000000000E+01    0.0000000000E+00    0.0000000000E+00
    0.0000000000E+00    0.1000000000E+01    0.0000000000E+00
    0.0000000000E+00    0.0000000000E+00    0.1000000000E+01
    0.0000000000E+00      0.0000000000E+00      0.0000000000E+00

    0.0000000000E+00   -0.1000000000E+01    0.0000000000E+00
   -0.1000000000E+01    0.0000000000E+00    0.0000000000E+00
    0.0000000000E+00    0.0000000000E+00   -0.1000000000E+01
    0.7558907511E+01      0.7558907511E+01      0.7558907511E+01

    0.0000000000E+00    0.1000000000E+01    0.0000000000E+00
    0.1000000000E+01    0.0000000000E+00    0.0000000000E+00
    0.0000000000E+00    0.0000000000E+00    0.1000000000E+01
    0.7558907511E+01      0.7558907511E+01      0.7558907511E+01

   -0.1000000000E+01    0.0000000000E+00    0.0000000000E+00
    0.0000000000E+00    0.1000000000E+01    0.0000000000E+00
    0.0000000000E+00    0.0000000000E+00   -0.1000000000E+01
    0.0000000000E+00      0.0000000000E+00      0.0000000000E+00

    0.1000000000E+01    0.0000000000E+00    0.0000000000E+00
    0.0000000000E+00   -0.1000000000E+01    0.0000000000E+00
    0.0000000000E+00    0.0000000000E+00    0.1000000000E+01
    0.0000000000E+00      0.1678414632E-14      0.0000000000E+00

    0.0000000000E+00    0.1000000000E+01    0.0000000000E+00
    0.1000000000E+01    0.0000000000E+00    0.0000000000E+00
    0.0000000000E+00    0.0000000000E+00   -0.1000000000E+01
    0.7558907511E+01      0.7558907511E+01      0.7558907511E+01

    0.0000000000E+00   -0.1000000000E+01    0.0000000000E+00
   -0.1000000000E+01    0.0000000000E+00    0.0000000000E+00
    0.0000000000E+00    0.0000000000E+00    0.1000000000E+01
    0.7558907511E+01      0.7558907511E+01      0.7558907511E+01

    0.0000000000E+00    0.1000000000E+01    0.0000000000E+00
    0.0000000000E+00    0.0000000000E+00    0.1000000000E+01
    0.1000000000E+01    0.0000000000E+00    0.0000000000E+00
    0.0000000000E+00      0.1678414632E-14      0.1511781502E+02

    0.0000000000E+00   -0.1000000000E+01    0.0000000000E+00
    0.0000000000E+00    0.0000000000E+00   -0.1000000000E+01
   -0.1000000000E+01    0.0000000000E+00    0.0000000000E+00
    0.0000000000E+00      0.1678414632E-14      0.1678414632E-14

    0.0000000000E+00    0.0000000000E+00    0.1000000000E+01
    0.0000000000E+00   -0.1000000000E+01    0.0000000000E+00
    0.1000000000E+01    0.0000000000E+00    0.0000000000E+00
    0.7558907511E+01      0.7558907511E+01      0.7558907511E+01

    0.0000000000E+00    0.0000000000E+00   -0.1000000000E+01
    0.0000000000E+00    0.1000000000E+01    0.0000000000E+00
   -0.1000000000E+01    0.0000000000E+00    0.0000000000E+00
    0.7558907511E+01      0.7558907511E+01      0.7558907511E+01

    0.0000000000E+00   -0.1000000000E+01    0.0000000000E+00
    0.0000000000E+00    0.0000000000E+00   -0.1000000000E+01
    0.1000000000E+01    0.0000000000E+00    0.0000000000E+00
    0.0000000000E+00      0.1678414632E-14      0.1678414632E-14

    0.0000000000E+00    0.1000000000E+01    0.0000000000E+00
    0.0000000000E+00    0.0000000000E+00    0.1000000000E+01
   -0.1000000000E+01    0.0000000000E+00    0.0000000000E+00
    0.0000000000E+00      0.1678414632E-14      0.1511781502E+02

    0.0000000000E+00    0.0000000000E+00   -0.1000000000E+01
    0.0000000000E+00    0.1000000000E+01    0.0000000000E+00
    0.1000000000E+01    0.0000000000E+00    0.0000000000E+00
    0.7558907511E+01      0.7558907511E+01      0.7558907511E+01

    0.0000000000E+00    0.0000000000E+00    0.1000000000E+01
    0.0000000000E+00   -0.1000000000E+01    0.0000000000E+00
   -0.1000000000E+01    0.0000000000E+00    0.0000000000E+00
    0.7558907511E+01      0.7558907511E+01      0.7558907511E+01

    0.0000000000E+00    0.1000000000E+01    0.0000000000E+00
    0.0000000000E+00    0.0000000000E+00   -0.1000000000E+01
   -0.1000000000E+01    0.0000000000E+00    0.0000000000E+00
    0.0000000000E+00      0.1678414632E-14      0.1678414632E-14

    0.0000000000E+00   -0.1000000000E+01    0.0000000000E+00
    0.0000000000E+00    0.0000000000E+00    0.1000000000E+01
    0.1000000000E+01    0.0000000000E+00    0.0000000000E+00
    0.0000000000E+00      0.1678414632E-14      0.1511781502E+02

    0.0000000000E+00    0.0000000000E+00   -0.1000000000E+01
    0.0000000000E+00   -0.1000000000E+01    0.0000000000E+00
   -0.1000000000E+01    0.0000000000E+00    0.0000000000E+00
    0.7558907511E+01      0.7558907511E+01      0.7558907511E+01

    0.0000000000E+00    0.0000000000E+00    0.1000000000E+01
    0.0000000000E+00    0.1000000000E+01    0.0000000000E+00
    0.1000000000E+01    0.0000000000E+00    0.0000000000E+00
    0.7558907511E+01      0.7558907511E+01      0.7558907511E+01

    0.0000000000E+00   -0.1000000000E+01    0.0000000000E+00
    0.0000000000E+00    0.0000000000E+00    0.1000000000E+01
   -0.1000000000E+01    0.0000000000E+00    0.0000000000E+00
    0.0000000000E+00      0.1678414632E-14      0.1511781502E+02

    0.0000000000E+00    0.1000000000E+01    0.0000000000E+00
    0.0000000000E+00    0.0000000000E+00   -0.1000000000E+01
    0.1000000000E+01    0.0000000000E+00    0.0000000000E+00
    0.0000000000E+00      0.1678414632E-14      0.1678414632E-14

    0.0000000000E+00    0.0000000000E+00    0.1000000000E+01
    0.0000000000E+00    0.1000000000E+01    0.0000000000E+00
   -0.1000000000E+01    0.0000000000E+00    0.0000000000E+00
    0.7558907511E+01      0.7558907511E+01      0.7558907511E+01

    0.0000000000E+00    0.0000000000E+00   -0.1000000000E+01
    0.0000000000E+00   -0.1000000000E+01    0.0000000000E+00
    0.1000000000E+01    0.0000000000E+00    0.0000000000E+00
    0.7558907511E+01      0.7558907511E+01      0.7558907511E+01

    0.0000000000E+00    0.0000000000E+00    0.1000000000E+01
    0.1000000000E+01    0.0000000000E+00    0.0000000000E+00
    0.0000000000E+00    0.1000000000E+01    0.0000000000E+00
    0.1511781502E+02      0.1678414632E-14      0.0000000000E+00

    0.0000000000E+00    0.0000000000E+00   -0.1000000000E+01
   -0.1000000000E+01    0.0000000000E+00    0.0000000000E+00
    0.0000000000E+00   -0.1000000000E+01    0.0000000000E+00
    0.1678414632E-14      0.1678414632E-14      0.0000000000E+00

    0.1000000000E+01    0.0000000000E+00    0.0000000000E+00
    0.0000000000E+00    0.0000000000E+00   -0.1000000000E+01
    0.0000000000E+00    0.1000000000E+01    0.0000000000E+00
    0.7558907511E+01      0.7558907511E+01      0.7558907511E+01

   -0.1000000000E+01    0.0000000000E+00    0.0000000000E+00
    0.0000000000E+00    0.0000000000E+00    0.1000000000E+01
    0.0000000000E+00   -0.1000000000E+01    0.0000000000E+00
    0.7558907511E+01      0.7558907511E+01      0.7558907511E+01

    0.0000000000E+00    0.0000000000E+00   -0.1000000000E+01
   -0.1000000000E+01    0.0000000000E+00    0.0000000000E+00
    0.0000000000E+00    0.1000000000E+01    0.0000000000E+00
    0.1678414632E-14      0.1678414632E-14      0.0000000000E+00

    0.0000000000E+00    0.0000000000E+00    0.1000000000E+01
    0.1000000000E+01    0.0000000000E+00    0.0000000000E+00
    0.0000000000E+00   -0.1000000000E+01    0.0000000000E+00
    0.1511781502E+02      0.1678414632E-14      0.0000000000E+00

   -0.1000000000E+01    0.0000000000E+00    0.0000000000E+00
    0.0000000000E+00    0.0000000000E+00    0.1000000000E+01
    0.0000000000E+00    0.1000000000E+01    0.0000000000E+00
    0.7558907511E+01      0.7558907511E+01      0.7558907511E+01

    0.1000000000E+01    0.0000000000E+00    0.0000000000E+00
    0.0000000000E+00    0.0000000000E+00   -0.1000000000E+01
    0.0000000000E+00   -0.1000000000E+01    0.0000000000E+00
    0.7558907511E+01      0.7558907511E+01      0.7558907511E+01

    0.0000000000E+00    0.0000000000E+00    0.1000000000E+01
   -0.1000000000E+01    0.0000000000E+00    0.0000000000E+00
    0.0000000000E+00   -0.1000000000E+01    0.0000000000E+00
    0.1678414632E-14      0.1678414632E-14      0.0000000000E+00

    0.0000000000E+00    0.0000000000E+00   -0.1000000000E+01
    0.1000000000E+01    0.0000000000E+00    0.0000000000E+00
    0.0000000000E+00    0.1000000000E+01    0.0000000000E+00
    0.1511781502E+02      0.1678414632E-14      0.0000000000E+00

   -0.1000000000E+01    0.0000000000E+00    0.0000000000E+00
    0.0000000000E+00    0.0000000000E+00   -0.1000000000E+01
    0.0000000000E+00   -0.1000000000E+01    0.0000000000E+00
    0.7558907511E+01      0.7558907511E+01      0.7558907511E+01

    0.1000000000E+01    0.0000000000E+00    0.0000000000E+00
    0.0000000000E+00    0.0000000000E+00    0.1000000000E+01
    0.0000000000E+00    0.1000000000E+01    0.0000000000E+00
    0.7558907511E+01      0.7558907511E+01      0.7558907511E+01

    0.0000000000E+00    0.0000000000E+00   -0.1000000000E+01
    0.1000000000E+01    0.0000000000E+00    0.0000000000E+00
    0.0000000000E+00   -0.1000000000E+01    0.0000000000E+00
    0.1511781502E+02      0.1678414632E-14      0.0000000000E+00

    0.0000000000E+00    0.0000000000E+00    0.1000000000E+01
   -0.1000000000E+01    0.0000000000E+00    0.0000000000E+00
    0.0000000000E+00    0.1000000000E+01    0.0000000000E+00
    0.1678414632E-14      0.1678414632E-14      0.0000000000E+00

    0.1000000000E+01    0.0000000000E+00    0.0000000000E+00
    0.0000000000E+00    0.0000000000E+00    0.1000000000E+01
    0.0000000000E+00   -0.1000000000E+01    0.0000000000E+00
    0.7558907511E+01      0.7558907511E+01      0.7558907511E+01

   -0.1000000000E+01    0.0000000000E+00    0.0000000000E+00
    0.0000000000E+00    0.0000000000E+00   -0.1000000000E+01
    0.0000000000E+00    0.1000000000E+01    0.0000000000E+00
    0.7558907511E+01      0.7558907511E+01      0.7558907511E+01

----------------------------------------------------------------------


siesta: ******************** Simulation parameters ****************************
siesta:
siesta: The following are some of the parameters of the simulation.
siesta: A complete list of the parameters used, including default values,
siesta: can be found in file out.fdf
siesta:
redata: Spin configuration                          = none
redata: Number of spin components                   = 1
redata: Time-Reversal Symmetry                      = T
redata: Spin-spiral                                 = F
redata: Long output                                 =   F
redata: Number of Atomic Species                    =        1
redata: Charge density info will appear in .RHO file
redata: Write Mulliken Pop.                         = NO
redata: Matel table size (NRTAB)                    =     1024
redata: Mesh Cutoff                                 =   300.0000 Ry
redata: Net charge of the system                    =     0.0000 |e|
redata: Min. number of SCF Iter                     =        0
redata: Max. number of SCF Iter                     =        0
redata: SCF mix quantity                            = Hamiltonian
redata: Mix DM or H after convergence               =   F
redata: Recompute H after scf cycle                 =   F
redata: Mix DM in first SCF step                    =   T
redata: Write Pulay info on disk                    =   F
redata: New DM Mixing Weight                        =     0.2500
redata: New DM Occupancy tolerance                  = 0.000000000001
redata: No kicks to SCF
redata: DM Mixing Weight for Kicks                  =     0.5000
redata: Require Harris convergence for SCF          =   F
redata: Harris energy tolerance for SCF             =     0.000100 eV
redata: Require DM convergence for SCF              =   T
redata: DM tolerance for SCF                        =     0.000100
redata: Require EDM convergence for SCF             =   F
redata: EDM tolerance for SCF                       =     0.001000 eV
redata: Require H convergence for SCF               =   T
redata: Hamiltonian tolerance for SCF               =     0.001000 eV
redata: Require (free) Energy convergence for SCF   =   F
redata: (free) Energy tolerance for SCF             =     0.000100 eV
redata: Using Saved Data (generic)                  =   F
redata: Use continuation files for DM               =   F
redata: Neglect nonoverlap interactions             =   F
redata: Method of Calculation                       = Diagonalization
redata: Electronic Temperature                      =   299.9869 K
redata: Fix the spin of the system                  =   F
redata: Max. number of TDED Iter                    =        1
redata: Number of TDED substeps                     =        3
redata: Dynamics option                             = Single-point calculation
mix.SCF: Pulay mixing                            = Pulay
mix.SCF:    Variant                              = stable
mix.SCF:    History steps                        = 2
mix.SCF:    Linear mixing weight                 =     0.250000
mix.SCF:    Mixing weight                        =     0.250000
mix.SCF:    SVD condition                        = 0.1000E-07
redata: ***********************************************************************

%block SCF.Mixers
  Pulay
%endblock SCF.Mixers

%block SCF.Mixer.Pulay
  # Mixing method
  method pulay
  variant stable

  # Mixing options
  weight 0.2500
  weight.linear 0.2500
  history 2
%endblock SCF.Mixer.Pulay

DM_history_depth set to one: no extrapolation allowed by default for geometry relaxation
Size of DM history Fstack: 1
Total number of electrons:    48.000000
Total ionic charge:    48.000000

* ProcessorY, Blocksize:    2  24


* Orbital distribution balance (max,min):    48    24


siesta: k-grid: Number of k-points =         1
siesta: k-point is Gamma-only

diag: Algorithm                                     = D&C
diag: Parallel over k                               =   F
diag: Use parallel 2D distribution                  =   T
diag: Parallel block-size                           = 24
diag: Parallel distribution                         =     2 x     4
diag: Used triangular part                          = Lower
diag: Absolute tolerance                            =  0.100E-15
diag: Orthogonalization factor                      =  0.100E-05
diag: Memory factor                                 =  1.0000


ts: **************************************************************
ts: Save H and S matrices                           =    F
ts: Save DM and EDM matrices                        =    F
ts: Fix Hartree potential                           =    F
ts: Only save the overlap matrix S                  =    F
ts: **************************************************************

************************ Begin: TS CHECKS AND WARNINGS ************************
************************ End: TS CHECKS AND WARNINGS **************************


                     ====================================
                        Single-point calculation
                     ====================================

outcell: Unit cell vectors (Ang):
        8.000000    0.000000    0.000000
        0.000000    8.000000    0.000000
        0.000000    0.000000    8.000000

outcell: Cell vector modules (Ang)   :    8.000000    8.000000    8.000000
outcell: Cell angles (23,13,12) (deg):     90.0000     90.0000     90.0000
outcell: Cell volume (Ang**3)        :    512.0000
Gamma-point calculation with multiply-connected orbital pairs
Folding of H and S implicitly performed
<dSpData1D:S at geom step 0
  <sparsity:sparsity for geom step 0
    nrows_g=240 nrows=48 sparsity=.1730 nnzs=9963, refcount: 7>
  <dData1D:(new from dSpData1D) n=9963, refcount: 1>
refcount: 1>
new_DM -- step:     1
Initializing Density Matrix...
DM filled with atomic data:
<dSpData2D:DM initialized from atoms
  <sparsity:sparsity for geom step 0
    nrows_g=240 nrows=48 sparsity=.1730 nnzs=9963, refcount: 8>
  <dData2D:DM n=9963 m=1, refcount: 1>
refcount: 1>
No. of atoms with KB's overlaping orbs in proc 0. Max # of overlaps:      48      96
New grid distribution:   1
           1       1:   45    1:   23    1:   12
           2       1:   45    1:   23   13:   23
           3       1:   45    1:   23   24:   34
           4       1:   45    1:   23   35:   45
           5       1:   45   24:   45    1:   12
           6       1:   45   24:   45   13:   23
           7       1:   45   24:   45   24:   34
           8       1:   45   24:   45   35:   45

InitMesh: MESH =    90 x    90 x    90 =      729000
InitMesh: (bp) =    45 x    45 x    45 =       91125
InitMesh: Mesh cutoff (required, used) =   300.000   349.789 Ry
ExtMesh (bp) on 0 =   105 x    83 x    72 =      627480
New grid distribution:   2
           1      23:   45    1:   22    1:   22
           2       1:   22    1:   22    1:   22
           3       1:   23    1:   23   23:   45
           4      24:   45    1:   23   23:   45
           5      23:   45   23:   45    1:   22
           6       1:   22   23:   45    1:   22
           7       1:   23   24:   45   23:   45
           8      24:   45   24:   45   23:   45
New grid distribution:   3
           1       1:   23    1:   23    1:   23
           2      24:   45   24:   45    1:   23
           3       1:   23    1:   23   24:   45
           4      24:   45    1:   23   24:   45
           5       1:   23   24:   45    1:   23
           6      24:   45    1:   23    1:   23
           7       1:   23   24:   45   24:   45
           8      24:   45   24:   45   24:   45
Setting up quadratic distribution...
ExtMesh (bp) on 0 =    83 x    82 x    82 =      558092
PhiOnMesh: Number of (b)points on node 0 =                11132
PhiOnMesh: nlist on node 0 =               355928
SCF_NOT_CONV: SCF did not converge  in maximum number of steps.
Geom step, scf iteration, dmax:    0     0     0.000000

Using DM_out to compute the final energy and forces
No. of atoms with KB's overlaping orbs in proc 0. Max # of overlaps:      48      96

siesta: E_KS(eV) =             -620.9099
change in fa due to symmetrization =    -0.33639757646142243175E-13   -0.12058409826209981475E-12   -0.68944849829222221160E-13
change in fa due to symmetrization =     0.36082248300317587564E-13    0.12104206525975769182E-12    0.65392136150421720231E-13
change in fa due to symmetrization =     0.12165268792330152792E-12   -0.36304292905242618872E-13   -0.72830630415410269052E-13
change in fa due to symmetrization =    -0.11930734178378088473E-12    0.31641356201816961402E-13    0.74162898044960456900E-13
change in fa due to symmetrization =     0.34305891460917337099E-13    0.12329026688462363381E-12   -0.70499162063697440317E-13
change in fa due to symmetrization =    -0.34527936065842368407E-13   -0.12087553180606391834E-12    0.73718808835110394284E-13
change in fa due to symmetrization =    -0.33639757646142243175E-13   -0.12058409826209981475E-12   -0.68944849829222221160E-13
change in fa due to symmetrization =     0.36082248300317587564E-13    0.12104206525975769182E-12    0.65392136150421720231E-13
change in fa due to symmetrization =     0.12165268792330152792E-12   -0.36304292905242618872E-13   -0.72830630415410269052E-13
change in fa due to symmetrization =    -0.11930734178378088473E-12    0.31641356201816961402E-13    0.74162898044960456900E-13
change in fa due to symmetrization =     0.34305891460917337099E-13    0.12329026688462363381E-12   -0.70499162063697440317E-13
change in fa due to symmetrization =    -0.34527936065842368407E-13   -0.12087553180606391834E-12    0.73718808835110394284E-13
change in fa due to symmetrization =    -0.12029266471813571115E-12    0.27644553313166397857E-13   -0.70943251273547502933E-13
change in fa due to symmetrization =    -0.33639757646142243175E-13   -0.12058409826209981475E-12   -0.68944849829222221160E-13
change in fa due to symmetrization =     0.36082248300317587564E-13    0.12104206525975769182E-12    0.65392136150421720231E-13
change in fa due to symmetrization =     0.12165268792330152792E-12   -0.36304292905242618872E-13   -0.72830630415410269052E-13
change in fa due to symmetrization =    -0.11930734178378088473E-12    0.31641356201816961402E-13    0.74162898044960456900E-13
change in fa due to symmetrization =     0.34305891460917337099E-13    0.12329026688462363381E-12   -0.70499162063697440317E-13
change in fa due to symmetrization =    -0.33639757646142243175E-13   -0.12058409826209981475E-12   -0.68944849829222221160E-13
change in fa due to symmetrization =    -0.33639757646142243175E-13   -0.12058409826209981475E-12   -0.68944849829222221160E-13
change in fa due to symmetrization =     0.36082248300317587564E-13    0.12104206525975769182E-12    0.65392136150421720231E-13
change in fa due to symmetrization =     0.12165268792330152792E-12   -0.36304292905242618872E-13   -0.72830630415410269052E-13
change in fa due to symmetrization =    -0.11930734178378088473E-12    0.31641356201816961402E-13    0.74162898044960456900E-13
change in fa due to symmetrization =     0.34305891460917337099E-13    0.12329026688462363381E-12   -0.70499162063697440317E-13
change in fa due to symmetrization =    -0.33639757646142243175E-13   -0.12058409826209981475E-12   -0.68944849829222221160E-13
change in fa due to symmetrization =     0.36082248300317587564E-13    0.12104206525975769182E-12    0.65392136150421720231E-13
change in fa due to symmetrization =     0.12165268792330152792E-12   -0.36304292905242618872E-13   -0.72830630415410269052E-13
change in fa due to symmetrization =    -0.11930734178378088473E-12    0.31641356201816961402E-13    0.74162898044960456900E-13
change in fa due to symmetrization =     0.34305891460917337099E-13    0.12329026688462363381E-12   -0.70499162063697440317E-13
change in fa due to symmetrization =    -0.34527936065842368407E-13   -0.12087553180606391834E-12    0.73718808835110394284E-13
change in fa due to symmetrization =    -0.12029266471813571115E-12    0.27644553313166397857E-13   -0.70943251273547502933E-13
change in fa due to symmetrization =    -0.33639757646142243175E-13   -0.12058409826209981475E-12   -0.68944849829222221160E-13
change in fa due to symmetrization =     0.36082248300317587564E-13    0.12104206525975769182E-12    0.65392136150421720231E-13
change in fa due to symmetrization =     0.12165268792330152792E-12   -0.36304292905242618872E-13   -0.72830630415410269052E-13
change in fa due to symmetrization =    -0.11930734178378088473E-12    0.31641356201816961402E-13    0.74162898044960456900E-13
change in fa due to symmetrization =     0.34305891460917337099E-13    0.12329026688462363381E-12   -0.70499162063697440317E-13
change in fa due to symmetrization =    -0.34527936065842368407E-13   -0.12087553180606391834E-12    0.73718808835110394284E-13
change in fa due to symmetrization =    -0.12029266471813571115E-12    0.27644553313166397857E-13   -0.70943251273547502933E-13
change in fa due to symmetrization =     0.12032042029375134007E-12   -0.34305891460917337099E-13    0.71831429693247628165E-13
change in fa due to symmetrization =    -0.35527136788005009294E-13    0.12410905636528468676E-12    0.70721206668622471625E-13
change in fa due to symmetrization =     0.32751579226442117942E-13   -0.11665668431248832349E-12   -0.70499162063697440317E-13
change in fa due to symmetrization =     0.12032042029375134007E-12   -0.34305891460917337099E-13    0.71831429693247628165E-13
change in fa due to symmetrization =    -0.35527136788005009294E-13    0.12410905636528468676E-12    0.70721206668622471625E-13
change in fa due to symmetrization =     0.32751579226442117942E-13   -0.11665668431248832349E-12   -0.70499162063697440317E-13
change in fa due to symmetrization =    -0.34527936065842368407E-13   -0.12087553180606391834E-12    0.73718808835110394284E-13
change in fa due to symmetrization =    -0.12029266471813571115E-12    0.27644553313166397857E-13   -0.70943251273547502933E-13
change in fa due to symmetrization =     0.12032042029375134007E-12   -0.34305891460917337099E-13    0.71831429693247628165E-13
change in fa due to symmetrization =    -0.34527936065842368407E-13   -0.12087553180606391834E-12    0.73718808835110394284E-13
change in fa due to symmetrization =    -0.12029266471813571115E-12    0.27644553313166397857E-13   -0.70943251273547502933E-13
change in fa due to symmetrization =     0.12032042029375134007E-12   -0.34305891460917337099E-13    0.71831429693247628165E-13
change in fa due to symmetrization =    -0.35527136788005009294E-13    0.12410905636528468676E-12    0.70721206668622471625E-13
change in fa due to symmetrization =     0.12032042029375134007E-12   -0.34305891460917337099E-13    0.71831429693247628165E-13
change in fa due to symmetrization =    -0.12029266471813571115E-12    0.27644553313166397857E-13   -0.70943251273547502933E-13
change in fa due to symmetrization =     0.12032042029375134007E-12   -0.34305891460917337099E-13    0.71831429693247628165E-13
change in fa due to symmetrization =    -0.35527136788005009294E-13    0.12410905636528468676E-12    0.70721206668622471625E-13
change in fa due to symmetrization =     0.32751579226442117942E-13   -0.11665668431248832349E-12   -0.70499162063697440317E-13
change in fa due to symmetrization =     0.32751579226442117942E-13   -0.11665668431248832349E-12   -0.70499162063697440317E-13
change in fa due to symmetrization =     0.11934897514720432810E-12    0.32640556923979602288E-13    0.81379347705023974413E-13
change in fa due to symmetrization =    -0.12226331058684536401E-12   -0.29087843245179101359E-13   -0.64948046940571657615E-13
change in fa due to symmetrization =     0.33639757646142243175E-13   -0.11723955140041653067E-12    0.72053474298172659473E-13
change in fa due to symmetrization =     0.11934897514720432810E-12    0.32640556923979602288E-13    0.81379347705023974413E-13
change in fa due to symmetrization =    -0.12226331058684536401E-12   -0.29087843245179101359E-13   -0.64948046940571657615E-13
change in fa due to symmetrization =    -0.35527136788005009294E-13    0.12410905636528468676E-12    0.70721206668622471625E-13
change in fa due to symmetrization =     0.32751579226442117942E-13   -0.11665668431248832349E-12   -0.70499162063697440317E-13
change in fa due to symmetrization =     0.11934897514720432810E-12    0.32640556923979602288E-13    0.81379347705023974413E-13
change in fa due to symmetrization =    -0.12226331058684536401E-12   -0.29087843245179101359E-13   -0.64948046940571657615E-13
change in fa due to symmetrization =     0.33639757646142243175E-13   -0.11723955140041653067E-12    0.72053474298172659473E-13
change in fa due to symmetrization =    -0.32085445411667024018E-13    0.12334577803585489164E-12   -0.66280314570121845463E-13
change in fa due to symmetrization =    -0.12126410986468272313E-12   -0.37414515929867775412E-13    0.68278716014447127236E-13
change in fa due to symmetrization =     0.12001510896197942202E-12    0.33417713041217211867E-13   -0.78714812445923598716E-13
change in fa due to symmetrization =    -0.27200464103316335240E-13    0.32529534621517086634E-13    0.57481797099967479880E-13
change in fa due to symmetrization =     0.31197266991966898786E-13   -0.21205259770340489922E-13   -0.57093219041348675091E-13
change in fa due to symmetrization =     0.11934897514720432810E-12    0.32640556923979602288E-13    0.81379347705023974413E-13
change in fa due to symmetrization =    -0.12226331058684536401E-12   -0.29087843245179101359E-13   -0.64948046940571657615E-13
change in fa due to symmetrization =     0.33639757646142243175E-13   -0.11723955140041653067E-12    0.72053474298172659473E-13
change in fa due to symmetrization =    -0.32085445411667024018E-13    0.12334577803585489164E-12   -0.66280314570121845463E-13
change in fa due to symmetrization =    -0.12126410986468272313E-12   -0.37414515929867775412E-13    0.68278716014447127236E-13
change in fa due to symmetrization =     0.12001510896197942202E-12    0.33417713041217211867E-13   -0.78714812445923598716E-13
change in fa due to symmetrization =    -0.27200464103316335240E-13    0.32529534621517086634E-13    0.57481797099967479880E-13
change in fa due to symmetrization =     0.31197266991966898786E-13   -0.21205259770340489922E-13   -0.57093219041348675091E-13
change in fa due to symmetrization =     0.10469403122215226176E-12   -0.63227201252402664977E-13    0.16653345369377348106E-13
change in fa due to symmetrization =    -0.35527136788005009294E-13    0.12410905636528468676E-12    0.70721206668622471625E-13
change in fa due to symmetrization =     0.32751579226442117942E-13   -0.11665668431248832349E-12   -0.70499162063697440317E-13
change in fa due to symmetrization =     0.11934897514720432810E-12    0.32640556923979602288E-13    0.81379347705023974413E-13
change in fa due to symmetrization =    -0.12226331058684536401E-12   -0.29087843245179101359E-13   -0.64948046940571657615E-13
change in fa due to symmetrization =     0.33639757646142243175E-13   -0.11723955140041653067E-12    0.72053474298172659473E-13
change in fa due to symmetrization =    -0.32085445411667024018E-13    0.12334577803585489164E-12   -0.66280314570121845463E-13
change in fa due to symmetrization =    -0.12126410986468272313E-12   -0.37414515929867775412E-13    0.68278716014447127236E-13
change in fa due to symmetrization =     0.12001510896197942202E-12    0.33417713041217211867E-13   -0.78714812445923598716E-13
change in fa due to symmetrization =    -0.27200464103316335240E-13    0.32529534621517086634E-13    0.57481797099967479880E-13
change in fa due to symmetrization =     0.31197266991966898786E-13   -0.21205259770340489922E-13   -0.57093219041348675091E-13
change in fa due to symmetrization =     0.10469403122215226176E-12   -0.63227201252402664977E-13    0.16653345369377348106E-13
change in fa due to symmetrization =     0.33639757646142243175E-13   -0.11723955140041653067E-12    0.72053474298172659473E-13
change in fa due to symmetrization =     0.11934897514720432810E-12    0.32640556923979602288E-13    0.81379347705023974413E-13
change in fa due to symmetrization =    -0.12226331058684536401E-12   -0.29087843245179101359E-13   -0.64948046940571657615E-13
change in fa due to symmetrization =     0.33639757646142243175E-13   -0.11723955140041653067E-12    0.72053474298172659473E-13
change in fa due to symmetrization =    -0.32085445411667024018E-13    0.12334577803585489164E-12   -0.66280314570121845463E-13
change in fa due to symmetrization =     0.10469403122215226176E-12   -0.63227201252402664977E-13    0.16653345369377348106E-13
change in fa due to symmetrization =    -0.99920072216264088638E-13    0.61034510778767980810E-13   -0.91038288019262836315E-14
change in fa due to symmetrization =    -0.31086244689504383132E-13   -0.18762769116165145533E-13   -0.53970716784590422321E-13
change in fa due to symmetrization =    -0.99920072216264088638E-13    0.61034510778767980810E-13   -0.91038288019262836315E-14
change in fa due to symmetrization =    -0.31086244689504383132E-13   -0.18762769116165145533E-13   -0.53970716784590422321E-13
change in fa due to symmetrization =     0.31641356201816961402E-13    0.24980018054066022160E-13    0.54595217235942072875E-13
change in fa due to symmetrization =     0.98476782284251385136E-13    0.62089222652161879523E-13   -0.32307490016592055326E-13
change in fa due to symmetrization =    -0.32085445411667024018E-13    0.12334577803585489164E-12   -0.66280314570121845463E-13
change in fa due to symmetrization =    -0.12126410986468272313E-12   -0.37414515929867775412E-13    0.68278716014447127236E-13
change in fa due to symmetrization =     0.12001510896197942202E-12    0.33417713041217211867E-13   -0.78714812445923598716E-13
change in fa due to symmetrization =    -0.27200464103316335240E-13    0.32529534621517086634E-13    0.57481797099967479880E-13
change in fa due to symmetrization =    -0.32085445411667024018E-13    0.12334577803585489164E-12   -0.66280314570121845463E-13
change in fa due to symmetrization =    -0.12126410986468272313E-12   -0.37414515929867775412E-13    0.68278716014447127236E-13
change in fa due to symmetrization =     0.12001510896197942202E-12    0.33417713041217211867E-13   -0.78714812445923598716E-13
change in fa due to symmetrization =    -0.27200464103316335240E-13    0.32529534621517086634E-13    0.57481797099967479880E-13
change in fa due to symmetrization =    -0.12126410986468272313E-12   -0.37414515929867775412E-13    0.68278716014447127236E-13
change in fa due to symmetrization =    -0.10391687510491465218E-12   -0.61312066534924269945E-13    0.47739590058881731238E-14
change in fa due to symmetrization =     0.30864200084579351824E-13    0.26978419498391303932E-13   -0.52818860396541822411E-13
change in fa due to symmetrization =     0.31197266991966898786E-13   -0.21205259770340489922E-13   -0.57093219041348675091E-13
change in fa due to symmetrization =     0.10469403122215226176E-12   -0.63227201252402664977E-13    0.16653345369377348106E-13
change in fa due to symmetrization =    -0.99920072216264088638E-13    0.61034510778767980810E-13   -0.91038288019262836315E-14
change in fa due to symmetrization =    -0.31086244689504383132E-13   -0.18762769116165145533E-13   -0.53970716784590422321E-13
change in fa due to symmetrization =    -0.99920072216264088638E-13    0.61034510778767980810E-13   -0.91038288019262836315E-14
change in fa due to symmetrization =    -0.31086244689504383132E-13   -0.18762769116165145533E-13   -0.53970716784590422321E-13
change in fa due to symmetrization =     0.31641356201816961402E-13    0.24980018054066022160E-13    0.54595217235942072875E-13
change in fa due to symmetrization =     0.98476782284251385136E-13    0.62089222652161879523E-13   -0.32307490016592055326E-13
change in fa due to symmetrization =    -0.10391687510491465218E-12   -0.61312066534924269945E-13    0.47739590058881731238E-14
change in fa due to symmetrization =     0.30864200084579351824E-13    0.26978419498391303932E-13   -0.52818860396541822411E-13
change in fa due to symmetrization =    -0.33639757646142243175E-13   -0.22537527399890677771E-13    0.58730798002670780988E-13
change in fa due to symmetrization =     0.31641356201816961402E-13    0.24980018054066022160E-13    0.54595217235942072875E-13
change in fa due to symmetrization =     0.12001510896197942202E-12    0.33417713041217211867E-13   -0.78714812445923598716E-13
change in fa due to symmetrization =    -0.27200464103316335240E-13    0.32529534621517086634E-13    0.57481797099967479880E-13
change in fa due to symmetrization =     0.31197266991966898786E-13   -0.21205259770340489922E-13   -0.57093219041348675091E-13

siesta: E_KS - E_eggbox =      -620.9099
change in fa due to symmetrization =    -0.10313971898767704261E-12   -0.62033711500930621696E-13   -0.83266726846886740532E-14
change in fa due to symmetrization =     0.10025313912365163560E-12    0.62144733803393137350E-13    0.24202861936828412581E-13
change in fa due to symmetrization =     0.30975222387041867478E-13   -0.16986412276764895068E-13    0.54872772992098362010E-13
change in fa due to symmetrization =     0.31641356201816961402E-13    0.24980018054066022160E-13    0.54595217235942072875E-13
change in fa due to symmetrization =     0.98476782284251385136E-13    0.62089222652161879523E-13   -0.32307490016592055326E-13
change in fa due to symmetrization =    -0.10391687510491465218E-12   -0.61312066534924269945E-13    0.47739590058881731238E-14
change in fa due to symmetrization =    -0.33639757646142243175E-13   -0.22537527399890677771E-13    0.58730798002670780988E-13
change in fa due to symmetrization =    -0.10313971898767704261E-12   -0.62033711500930621696E-13   -0.83266726846886740532E-14
change in fa due to symmetrization =     0.10025313912365163560E-12    0.62144733803393137350E-13    0.24202861936828412581E-13
change in fa due to symmetrization =     0.30975222387041867478E-13   -0.16986412276764895068E-13    0.54872772992098362010E-13
change in fa due to symmetrization =    -0.33750779948604758829E-13    0.20539125955565395998E-13   -0.54900528567713990924E-13
change in fa due to symmetrization =    -0.10180745135812685476E-12    0.61797789108197775931E-13    0.85487172896137053613E-14
change in fa due to symmetrization =     0.31197266991966898786E-13   -0.21205259770340489922E-13   -0.57093219041348675091E-13
change in fa due to symmetrization =     0.10469403122215226176E-12   -0.63227201252402664977E-13    0.16653345369377348106E-13
change in fa due to symmetrization =    -0.99920072216264088638E-13    0.61034510778767980810E-13   -0.91038288019262836315E-14
change in fa due to symmetrization =    -0.31086244689504383132E-13   -0.18762769116165145533E-13   -0.53970716784590422321E-13
change in fa due to symmetrization =     0.31641356201816961402E-13    0.24980018054066022160E-13    0.54595217235942072875E-13
change in fa due to symmetrization =     0.98476782284251385136E-13    0.62089222652161879523E-13   -0.32307490016592055326E-13
change in fa due to symmetrization =    -0.10391687510491465218E-12   -0.61312066534924269945E-13    0.47739590058881731238E-14
change in fa due to symmetrization =     0.30864200084579351824E-13    0.26978419498391303932E-13   -0.52818860396541822411E-13
change in fa due to symmetrization =    -0.33639757646142243175E-13   -0.22537527399890677771E-13    0.58730798002670780988E-13
change in fa due to symmetrization =    -0.10313971898767704261E-12   -0.62033711500930621696E-13   -0.83266726846886740532E-14
change in fa due to symmetrization =     0.10025313912365163560E-12    0.62144733803393137350E-13    0.24202861936828412581E-13
change in fa due to symmetrization =     0.30975222387041867478E-13   -0.16986412276764895068E-13    0.54872772992098362010E-13
change in fa due to symmetrization =    -0.33750779948604758829E-13    0.20539125955565395998E-13   -0.54900528567713990924E-13
change in fa due to symmetrization =    -0.10180745135812685476E-12    0.61797789108197775931E-13    0.85487172896137053613E-14
change in fa due to symmetrization =     0.10236256287043943303E-12   -0.67501559897209517658E-13   -0.11990408665951690637E-13
change in fa due to symmetrization =     0.66530114750662505685E-13    0.10980105713542798185E-12    0.22759572004815709079E-13
change in fa due to symmetrization =    -0.65988881026157741871E-13   -0.10680345496894005919E-12   -0.24980018054066022160E-13
change in fa due to symmetrization =     0.19095836023552692495E-13   -0.31197266991966898786E-13   -0.60548788205494474823E-13
change in fa due to symmetrization =    -0.15543122344752191566E-13    0.35416114485542493640E-13    0.54428683782248299394E-13
change in fa due to symmetrization =    -0.66419092448199990031E-13    0.10835776720341527835E-12   -0.54400928206632670481E-14
change in fa due to symmetrization =     0.66738281567779722536E-13   -0.96589403142388619017E-13    0.16098233857064769836E-13
change in fa due to symmetrization =    -0.18762769116165145533E-13   -0.35638159090467524948E-13    0.55094817597023393319E-13
change in fa due to symmetrization =     0.20095036745715333382E-13    0.23425705819590803003E-13   -0.53568260938163803075E-13
change in fa due to symmetrization =    -0.33750779948604758829E-13    0.20539125955565395998E-13   -0.54900528567713990924E-13
change in fa due to symmetrization =    -0.10180745135812685476E-12    0.61797789108197775931E-13    0.85487172896137053613E-14
change in fa due to symmetrization =     0.10236256287043943303E-12   -0.67501559897209517658E-13   -0.11990408665951690637E-13
change in fa due to symmetrization =     0.66530114750662505685E-13    0.10980105713542798185E-12    0.22759572004815709079E-13
change in fa due to symmetrization =    -0.65988881026157741871E-13   -0.10680345496894005919E-12   -0.24980018054066022160E-13
change in fa due to symmetrization =     0.19095836023552692495E-13   -0.31197266991966898786E-13   -0.60548788205494474823E-13
change in fa due to symmetrization =    -0.15543122344752191566E-13    0.35416114485542493640E-13    0.54428683782248299394E-13
change in fa due to symmetrization =    -0.66419092448199990031E-13    0.10835776720341527835E-12   -0.54400928206632670481E-14
change in fa due to symmetrization =     0.66738281567779722536E-13   -0.96589403142388619017E-13    0.16098233857064769836E-13
change in fa due to symmetrization =    -0.18762769116165145533E-13   -0.35638159090467524948E-13    0.55094817597023393319E-13
change in fa due to symmetrization =     0.20095036745715333382E-13    0.23425705819590803003E-13   -0.53568260938163803075E-13
change in fa due to symmetrization =    -0.65947247662734298501E-13   -0.94591001698063337244E-13    0.10658141036401502788E-13
change in fa due to symmetrization =     0.66918692809281310474E-13    0.99587005308876541676E-13   -0.58841820305133296642E-14
change in fa due to symmetrization =    -0.15099033134902128950E-13    0.33195668436292180559E-13   -0.56010751592339147464E-13
change in fa due to symmetrization =     0.20206059048177849036E-13   -0.32973623831367149251E-13    0.60854099537266392872E-13
change in fa due to symmetrization =     0.66419092448199990031E-13   -0.95257135512838431168E-13   -0.89928064994637679774E-14
change in fa due to symmetrization =    -0.66169292267659329809E-13    0.10402789740737716784E-12    0.85487172896137053613E-14
change in fa due to symmetrization =     0.14543921622589550680E-13    0.24202861936828412581E-13    0.58064664187895687064E-13
change in fa due to symmetrization =    -0.20539125955565395998E-13   -0.37303493627405259758E-13   -0.57620574978045624448E-13
Max change in any component of fa due to symmetrization =     0.1241090564E-12
Max relative change =     0.1019075574E-11
old  stress = 
change in fa due to symmetrization =     0.30864200084579351824E-13    0.26978419498391303932E-13   -0.52818860396541822411E-13
change in fa due to symmetrization =    -0.33639757646142243175E-13   -0.22537527399890677771E-13    0.58730798002670780988E-13
change in fa due to symmetrization =    -0.10313971898767704261E-12   -0.62033711500930621696E-13   -0.83266726846886740532E-14
change in fa due to symmetrization =     0.10025313912365163560E-12    0.62144733803393137350E-13    0.24202861936828412581E-13
change in fa due to symmetrization =     0.30975222387041867478E-13   -0.16986412276764895068E-13    0.54872772992098362010E-13
change in fa due to symmetrization =    -0.33750779948604758829E-13    0.20539125955565395998E-13   -0.54900528567713990924E-13
change in fa due to symmetrization =    -0.10180745135812685476E-12    0.61797789108197775931E-13    0.85487172896137053613E-14
change in fa due to symmetrization =     0.10236256287043943303E-12   -0.67501559897209517658E-13   -0.11990408665951690637E-13
change in fa due to symmetrization =     0.66530114750662505685E-13    0.10980105713542798185E-12    0.22759572004815709079E-13
change in fa due to symmetrization =    -0.65988881026157741871E-13   -0.10680345496894005919E-12   -0.24980018054066022160E-13
change in fa due to symmetrization =     0.19095836023552692495E-13   -0.31197266991966898786E-13   -0.60548788205494474823E-13
change in fa due to symmetrization =    -0.15543122344752191566E-13    0.35416114485542493640E-13    0.54428683782248299394E-13
change in fa due to symmetrization =    -0.66419092448199990031E-13    0.10835776720341527835E-12   -0.54400928206632670481E-14
change in fa due to symmetrization =     0.66738281567779722536E-13   -0.96589403142388619017E-13    0.16098233857064769836E-13
change in fa due to symmetrization =    -0.18762769116165145533E-13   -0.35638159090467524948E-13    0.55094817597023393319E-13
change in fa due to symmetrization =     0.20095036745715333382E-13    0.23425705819590803003E-13   -0.53568260938163803075E-13
change in fa due to symmetrization =    -0.65947247662734298501E-13   -0.94591001698063337244E-13    0.10658141036401502788E-13
change in fa due to symmetrization =     0.66918692809281310474E-13    0.99587005308876541676E-13   -0.58841820305133296642E-14
change in fa due to symmetrization =    -0.15099033134902128950E-13    0.33195668436292180559E-13   -0.56010751592339147464E-13
change in fa due to symmetrization =     0.20206059048177849036E-13   -0.32973623831367149251E-13    0.60854099537266392872E-13
change in fa due to symmetrization =     0.66419092448199990031E-13   -0.95257135512838431168E-13   -0.89928064994637679774E-14
change in fa due to symmetrization =    -0.66169292267659329809E-13    0.10402789740737716784E-12    0.85487172896137053613E-14
change in fa due to symmetrization =     0.14543921622589550680E-13    0.24202861936828412581E-13    0.58064664187895687064E-13
change in fa due to symmetrization =    -0.20539125955565395998E-13   -0.37303493627405259758E-13   -0.57620574978045624448E-13
change in fa due to symmetrization =     0.10236256287043943303E-12   -0.67501559897209517658E-13   -0.11990408665951690637E-13
change in fa due to symmetrization =     0.66530114750662505685E-13    0.10980105713542798185E-12    0.22759572004815709079E-13
change in fa due to symmetrization =    -0.65988881026157741871E-13   -0.10680345496894005919E-12   -0.24980018054066022160E-13
change in fa due to symmetrization =     0.19095836023552692495E-13   -0.31197266991966898786E-13   -0.60548788205494474823E-13
change in fa due to symmetrization =    -0.15543122344752191566E-13    0.35416114485542493640E-13    0.54428683782248299394E-13
change in fa due to symmetrization =    -0.66419092448199990031E-13    0.10835776720341527835E-12   -0.54400928206632670481E-14
change in fa due to symmetrization =     0.66738281567779722536E-13   -0.96589403142388619017E-13    0.16098233857064769836E-13
change in fa due to symmetrization =    -0.18762769116165145533E-13   -0.35638159090467524948E-13    0.55094817597023393319E-13
change in fa due to symmetrization =     0.20095036745715333382E-13    0.23425705819590803003E-13   -0.53568260938163803075E-13
change in fa due to symmetrization =    -0.65947247662734298501E-13   -0.94591001698063337244E-13    0.10658141036401502788E-13
change in fa due to symmetrization =     0.66918692809281310474E-13    0.99587005308876541676E-13   -0.58841820305133296642E-14
change in fa due to symmetrization =    -0.15099033134902128950E-13    0.33195668436292180559E-13   -0.56010751592339147464E-13
change in fa due to symmetrization =     0.20206059048177849036E-13   -0.32973623831367149251E-13    0.60854099537266392872E-13
change in fa due to symmetrization =     0.66419092448199990031E-13   -0.95257135512838431168E-13   -0.89928064994637679774E-14
change in fa due to symmetrization =    -0.66169292267659329809E-13    0.10402789740737716784E-12    0.85487172896137053613E-14
change in fa due to symmetrization =     0.14543921622589550680E-13    0.24202861936828412581E-13    0.58064664187895687064E-13
change in fa due to symmetrization =    -0.20539125955565395998E-13   -0.37303493627405259758E-13   -0.57620574978045624448E-13
Max change in any component of fa due to symmetrization =     0.1241090564E-12
Max relative change =     0.1019075574E-11
old  stress = 
change in fa due to symmetrization =     0.36082248300317587564E-13    0.12104206525975769182E-12    0.65392136150421720231E-13
change in fa due to symmetrization =    -0.33639757646142243175E-13   -0.12058409826209981475E-12   -0.68944849829222221160E-13
change in fa due to symmetrization =     0.36082248300317587564E-13    0.12104206525975769182E-12    0.65392136150421720231E-13
change in fa due to symmetrization =     0.12165268792330152792E-12   -0.36304292905242618872E-13   -0.72830630415410269052E-13
change in fa due to symmetrization =    -0.11930734178378088473E-12    0.31641356201816961402E-13    0.74162898044960456900E-13
change in fa due to symmetrization =     0.34305891460917337099E-13    0.12329026688462363381E-12   -0.70499162063697440317E-13
change in fa due to symmetrization =    -0.34527936065842368407E-13   -0.12087553180606391834E-12    0.73718808835110394284E-13
change in fa due to symmetrization =    -0.12029266471813571115E-12    0.27644553313166397857E-13   -0.70943251273547502933E-13
change in fa due to symmetrization =     0.12032042029375134007E-12   -0.34305891460917337099E-13    0.71831429693247628165E-13
change in fa due to symmetrization =    -0.35527136788005009294E-13    0.12410905636528468676E-12    0.70721206668622471625E-13
change in fa due to symmetrization =     0.32751579226442117942E-13   -0.11665668431248832349E-12   -0.70499162063697440317E-13
change in fa due to symmetrization =     0.11934897514720432810E-12    0.32640556923979602288E-13    0.81379347705023974413E-13
change in fa due to symmetrization =    -0.12226331058684536401E-12   -0.29087843245179101359E-13   -0.64948046940571657615E-13
change in fa due to symmetrization =     0.33639757646142243175E-13   -0.11723955140041653067E-12    0.72053474298172659473E-13
change in fa due to symmetrization =    -0.32085445411667024018E-13    0.12334577803585489164E-12   -0.66280314570121845463E-13
change in fa due to symmetrization =    -0.12126410986468272313E-12   -0.37414515929867775412E-13    0.68278716014447127236E-13
change in fa due to symmetrization =     0.12001510896197942202E-12    0.33417713041217211867E-13   -0.78714812445923598716E-13
change in fa due to symmetrization =    -0.27200464103316335240E-13    0.32529534621517086634E-13    0.57481797099967479880E-13
change in fa due to symmetrization =     0.31197266991966898786E-13   -0.21205259770340489922E-13   -0.57093219041348675091E-13
change in fa due to symmetrization =     0.10469403122215226176E-12   -0.63227201252402664977E-13    0.16653345369377348106E-13
change in fa due to symmetrization =    -0.99920072216264088638E-13    0.61034510778767980810E-13   -0.91038288019262836315E-14
change in fa due to symmetrization =    -0.31086244689504383132E-13   -0.18762769116165145533E-13   -0.53970716784590422321E-13
change in fa due to symmetrization =     0.31641356201816961402E-13    0.24980018054066022160E-13    0.54595217235942072875E-13
change in fa due to symmetrization =     0.98476782284251385136E-13    0.62089222652161879523E-13   -0.32307490016592055326E-13
change in fa due to symmetrization =    -0.10391687510491465218E-12   -0.61312066534924269945E-13    0.47739590058881731238E-14
change in fa due to symmetrization =     0.30864200084579351824E-13    0.26978419498391303932E-13   -0.52818860396541822411E-13
change in fa due to symmetrization =    -0.33639757646142243175E-13   -0.22537527399890677771E-13    0.58730798002670780988E-13
change in fa due to symmetrization =    -0.10313971898767704261E-12   -0.62033711500930621696E-13   -0.83266726846886740532E-14
change in fa due to symmetrization =     0.10025313912365163560E-12    0.62144733803393137350E-13    0.24202861936828412581E-13
change in fa due to symmetrization =     0.30975222387041867478E-13   -0.16986412276764895068E-13    0.54872772992098362010E-13
change in fa due to symmetrization =    -0.33750779948604758829E-13    0.20539125955565395998E-13   -0.54900528567713990924E-13
change in fa due to symmetrization =    -0.10180745135812685476E-12    0.61797789108197775931E-13    0.85487172896137053613E-14
change in fa due to symmetrization =     0.10236256287043943303E-12   -0.67501559897209517658E-13   -0.11990408665951690637E-13
change in fa due to symmetrization =     0.66530114750662505685E-13    0.10980105713542798185E-12    0.22759572004815709079E-13
change in fa due to symmetrization =    -0.65988881026157741871E-13   -0.10680345496894005919E-12   -0.24980018054066022160E-13
change in fa due to symmetrization =     0.19095836023552692495E-13   -0.31197266991966898786E-13   -0.60548788205494474823E-13
change in fa due to symmetrization =    -0.15543122344752191566E-13    0.35416114485542493640E-13    0.54428683782248299394E-13
change in fa due to symmetrization =    -0.66419092448199990031E-13    0.10835776720341527835E-12   -0.54400928206632670481E-14
change in fa due to symmetrization =     0.66738281567779722536E-13   -0.96589403142388619017E-13    0.16098233857064769836E-13
change in fa due to symmetrization =    -0.18762769116165145533E-13   -0.35638159090467524948E-13    0.55094817597023393319E-13
change in fa due to symmetrization =     0.20095036745715333382E-13    0.23425705819590803003E-13   -0.53568260938163803075E-13
change in fa due to symmetrization =    -0.65947247662734298501E-13   -0.94591001698063337244E-13    0.10658141036401502788E-13
change in fa due to symmetrization =     0.66918692809281310474E-13    0.99587005308876541676E-13   -0.58841820305133296642E-14
change in fa due to symmetrization =    -0.15099033134902128950E-13    0.33195668436292180559E-13   -0.56010751592339147464E-13
change in fa due to symmetrization =     0.20206059048177849036E-13   -0.32973623831367149251E-13    0.60854099537266392872E-13
change in fa due to symmetrization =     0.66419092448199990031E-13   -0.95257135512838431168E-13   -0.89928064994637679774E-14
change in fa due to symmetrization =    -0.66169292267659329809E-13    0.10402789740737716784E-12    0.85487172896137053613E-14
change in fa due to symmetrization =     0.10469403122215226176E-12   -0.63227201252402664977E-13    0.16653345369377348106E-13
change in fa due to symmetrization =    -0.99920072216264088638E-13    0.61034510778767980810E-13   -0.91038288019262836315E-14
change in fa due to symmetrization =    -0.31086244689504383132E-13   -0.18762769116165145533E-13   -0.53970716784590422321E-13
change in fa due to symmetrization =     0.31641356201816961402E-13    0.24980018054066022160E-13    0.54595217235942072875E-13
change in fa due to symmetrization =     0.98476782284251385136E-13    0.62089222652161879523E-13   -0.32307490016592055326E-13
change in fa due to symmetrization =    -0.10391687510491465218E-12   -0.61312066534924269945E-13    0.47739590058881731238E-14
change in fa due to symmetrization =     0.30864200084579351824E-13    0.26978419498391303932E-13   -0.52818860396541822411E-13
change in fa due to symmetrization =    -0.33639757646142243175E-13   -0.22537527399890677771E-13    0.58730798002670780988E-13
change in fa due to symmetrization =    -0.10313971898767704261E-12   -0.62033711500930621696E-13   -0.83266726846886740532E-14
change in fa due to symmetrization =     0.10025313912365163560E-12    0.62144733803393137350E-13    0.24202861936828412581E-13
change in fa due to symmetrization =     0.30975222387041867478E-13   -0.16986412276764895068E-13    0.54872772992098362010E-13
change in fa due to symmetrization =    -0.33750779948604758829E-13    0.20539125955565395998E-13   -0.54900528567713990924E-13
change in fa due to symmetrization =    -0.10180745135812685476E-12    0.61797789108197775931E-13    0.85487172896137053613E-14
change in fa due to symmetrization =     0.10236256287043943303E-12   -0.67501559897209517658E-13   -0.11990408665951690637E-13
change in fa due to symmetrization =     0.66530114750662505685E-13    0.10980105713542798185E-12    0.22759572004815709079E-13
change in fa due to symmetrization =    -0.65988881026157741871E-13   -0.10680345496894005919E-12   -0.24980018054066022160E-13
change in fa due to symmetrization =     0.19095836023552692495E-13   -0.31197266991966898786E-13   -0.60548788205494474823E-13
change in fa due to symmetrization =    -0.15543122344752191566E-13    0.35416114485542493640E-13    0.54428683782248299394E-13
change in fa due to symmetrization =    -0.66419092448199990031E-13    0.10835776720341527835E-12   -0.54400928206632670481E-14
change in fa due to symmetrization =     0.66738281567779722536E-13   -0.96589403142388619017E-13    0.16098233857064769836E-13
change in fa due to symmetrization =    -0.18762769116165145533E-13   -0.35638159090467524948E-13    0.55094817597023393319E-13
change in fa due to symmetrization =     0.98476782284251385136E-13    0.62089222652161879523E-13   -0.32307490016592055326E-13
change in fa due to symmetrization =    -0.10391687510491465218E-12   -0.61312066534924269945E-13    0.47739590058881731238E-14
change in fa due to symmetrization =     0.30864200084579351824E-13    0.26978419498391303932E-13   -0.52818860396541822411E-13
change in fa due to symmetrization =    -0.33639757646142243175E-13   -0.22537527399890677771E-13    0.58730798002670780988E-13
change in fa due to symmetrization =    -0.10313971898767704261E-12   -0.62033711500930621696E-13   -0.83266726846886740532E-14
change in fa due to symmetrization =     0.10025313912365163560E-12    0.62144733803393137350E-13    0.24202861936828412581E-13
change in fa due to symmetrization =     0.30975222387041867478E-13   -0.16986412276764895068E-13    0.54872772992098362010E-13
change in fa due to symmetrization =     0.14543921622589550680E-13    0.24202861936828412581E-13    0.58064664187895687064E-13
change in fa due to symmetrization =    -0.20539125955565395998E-13   -0.37303493627405259758E-13   -0.57620574978045624448E-13
Max change in any component of fa due to symmetrization =     0.1241090564E-12
change in fa due to symmetrization =     0.20095036745715333382E-13    0.23425705819590803003E-13   -0.53568260938163803075E-13
change in fa due to symmetrization =    -0.65947247662734298501E-13   -0.94591001698063337244E-13    0.10658141036401502788E-13
change in fa due to symmetrization =     0.66918692809281310474E-13    0.99587005308876541676E-13   -0.58841820305133296642E-14
change in fa due to symmetrization =    -0.15099033134902128950E-13    0.33195668436292180559E-13   -0.56010751592339147464E-13
change in fa due to symmetrization =     0.20206059048177849036E-13   -0.32973623831367149251E-13    0.60854099537266392872E-13
change in fa due to symmetrization =     0.66419092448199990031E-13   -0.95257135512838431168E-13   -0.89928064994637679774E-14
change in fa due to symmetrization =    -0.65947247662734298501E-13   -0.94591001698063337244E-13    0.10658141036401502788E-13
change in fa due to symmetrization =     0.66918692809281310474E-13    0.99587005308876541676E-13   -0.58841820305133296642E-14
change in fa due to symmetrization =    -0.15099033134902128950E-13    0.33195668436292180559E-13   -0.56010751592339147464E-13
change in fa due to symmetrization =     0.20206059048177849036E-13   -0.32973623831367149251E-13    0.60854099537266392872E-13
change in fa due to symmetrization =     0.66419092448199990031E-13   -0.95257135512838431168E-13   -0.89928064994637679774E-14
change in fa due to symmetrization =    -0.66169292267659329809E-13    0.10402789740737716784E-12    0.85487172896137053613E-14
   -0.1866846932E-02   -0.1182457994E-17   -0.4269046054E-18
   -0.9469828350E-18   -0.1866846932E-02    0.2214144124E-16
   -0.3608360355E-18    0.2254462892E-16   -0.1866846932E-02
stress with symmetrization = 
   -0.1866846932E-02    0.0000000000E+00    0.0000000000E+00
    0.0000000000E+00   -0.1866846932E-02    0.0000000000E+00
    0.0000000000E+00    0.0000000000E+00   -0.1866846932E-02
change in components of stress due to symmetrization = 
   -0.1914701037E-15    0.1182457994E-17    0.4269046054E-18
Max change in any component of fa due to symmetrization =     0.1241090564E-12
Max relative change =     0.1019075574E-11
   -0.1866846932E-02   -0.1182457994E-17   -0.4269046054E-18
   -0.9469828350E-18   -0.1866846932E-02    0.2214144124E-16
   -0.3608360355E-18    0.2254462892E-16   -0.1866846932E-02
stress with symmetrization = 
   -0.1866846932E-02    0.0000000000E+00    0.0000000000E+00
change in fa due to symmetrization =    -0.33750779948604758829E-13    0.20539125955565395998E-13   -0.54900528567713990924E-13
change in fa due to symmetrization =    -0.10180745135812685476E-12    0.61797789108197775931E-13    0.85487172896137053613E-14
    0.0000000000E+00   -0.1866846932E-02    0.0000000000E+00
    0.0000000000E+00    0.0000000000E+00   -0.1866846932E-02
change in components of stress due to symmetrization = 
   -0.1914701037E-15    0.1182457994E-17    0.4269046054E-18
    0.9469828350E-18    0.1973247954E-16   -0.2214144124E-16
    0.3608360355E-18   -0.2254462892E-16    0.1702197411E-15
Max change in any component of stress due to symmetrization =     0.1914701037E-15
change in fa due to symmetrization =    -0.66169292267659329809E-13    0.10402789740737716784E-12    0.85487172896137053613E-14
change in fa due to symmetrization =     0.14543921622589550680E-13    0.24202861936828412581E-13    0.58064664187895687064E-13
change in fa due to symmetrization =    -0.20539125955565395998E-13   -0.37303493627405259758E-13   -0.57620574978045624448E-13
Max change in any component of fa due to symmetrization =     0.1241090564E-12
Max relative change =     0.1019075574E-11
old  stress = 
   -0.1866846932E-02   -0.1182457994E-17   -0.4269046054E-18
   -0.9469828350E-18   -0.1866846932E-02    0.2214144124E-16
   -0.3608360355E-18    0.2254462892E-16   -0.1866846932E-02
stress with symmetrization = 
change in fa due to symmetrization =     0.14543921622589550680E-13    0.24202861936828412581E-13    0.58064664187895687064E-13
change in fa due to symmetrization =    -0.20539125955565395998E-13   -0.37303493627405259758E-13   -0.57620574978045624448E-13
Max change in any component of fa due to symmetrization =     0.1241090564E-12
Max relative change =     0.1019075574E-11
old  stress = 
   -0.1866846932E-02   -0.1182457994E-17   -0.4269046054E-18
   -0.9469828350E-18   -0.1866846932E-02    0.2214144124E-16
    0.9469828350E-18    0.1973247954E-16   -0.2214144124E-16
    0.3608360355E-18   -0.2254462892E-16    0.1702197411E-15
Max change in any component of stress due to symmetrization =     0.1914701037E-15
old  stress = 
   -0.1866846932E-02   -0.1182457994E-17   -0.4269046054E-18
   -0.9469828350E-18   -0.1866846932E-02    0.2214144124E-16
   -0.3608360355E-18    0.2254462892E-16   -0.1866846932E-02
stress with symmetrization = 
   -0.1866846932E-02    0.0000000000E+00    0.0000000000E+00
    0.0000000000E+00   -0.1866846932E-02    0.0000000000E+00
    0.0000000000E+00    0.0000000000E+00   -0.1866846932E-02
change in components of stress due to symmetrization = 
   -0.1914701037E-15    0.1182457994E-17    0.4269046054E-18
change in fa due to symmetrization =     0.12165268792330152792E-12   -0.36304292905242618872E-13   -0.72830630415410269052E-13
change in fa due to symmetrization =    -0.11930734178378088473E-12    0.31641356201816961402E-13    0.74162898044960456900E-13
change in fa due to symmetrization =     0.34305891460917337099E-13    0.12329026688462363381E-12   -0.70499162063697440317E-13
change in fa due to symmetrization =    -0.34527936065842368407E-13   -0.12087553180606391834E-12    0.73718808835110394284E-13
change in fa due to symmetrization =    -0.12029266471813571115E-12    0.27644553313166397857E-13   -0.70943251273547502933E-13
change in fa due to symmetrization =     0.12032042029375134007E-12   -0.34305891460917337099E-13    0.71831429693247628165E-13
Max relative change =     0.1019075574E-11
old  stress = 
   -0.1866846932E-02   -0.1182457994E-17   -0.4269046054E-18
   -0.9469828350E-18   -0.1866846932E-02    0.2214144124E-16
   -0.3608360355E-18    0.2254462892E-16   -0.1866846932E-02
stress with symmetrization = 
   -0.1866846932E-02    0.0000000000E+00    0.0000000000E+00
    0.0000000000E+00   -0.1866846932E-02    0.0000000000E+00
    0.0000000000E+00    0.0000000000E+00   -0.1866846932E-02
change in components of stress due to symmetrization = 
change in fa due to symmetrization =    -0.35527136788005009294E-13    0.12410905636528468676E-12    0.70721206668622471625E-13
change in fa due to symmetrization =     0.32751579226442117942E-13   -0.11665668431248832349E-12   -0.70499162063697440317E-13
   -0.1914701037E-15    0.1182457994E-17    0.4269046054E-18
    0.9469828350E-18    0.1973247954E-16   -0.2214144124E-16
    0.3608360355E-18   -0.2254462892E-16    0.1702197411E-15
Max change in any component of stress due to symmetrization =     0.1914701037E-15
   -0.1866846932E-02    0.0000000000E+00    0.0000000000E+00
    0.0000000000E+00   -0.1866846932E-02    0.0000000000E+00
    0.0000000000E+00    0.0000000000E+00   -0.1866846932E-02
change in components of stress due to symmetrization = 
   -0.3608360355E-18    0.2254462892E-16   -0.1866846932E-02
stress with symmetrization = 
   -0.1866846932E-02    0.0000000000E+00    0.0000000000E+00
    0.0000000000E+00   -0.1866846932E-02    0.0000000000E+00
    0.0000000000E+00    0.0000000000E+00   -0.1866846932E-02
change in components of stress due to symmetrization = 
    0.9469828350E-18    0.1973247954E-16   -0.2214144124E-16
    0.3608360355E-18   -0.2254462892E-16    0.1702197411E-15
Max change in any component of stress due to symmetrization =     0.1914701037E-15
   -0.1914701037E-15    0.1182457994E-17    0.4269046054E-18
    0.9469828350E-18    0.1973247954E-16   -0.2214144124E-16
   -0.1914701037E-15    0.1182457994E-17    0.4269046054E-18
    0.9469828350E-18    0.1973247954E-16   -0.2214144124E-16
    0.3608360355E-18   -0.2254462892E-16    0.1702197411E-15
change in fa due to symmetrization =     0.11934897514720432810E-12    0.32640556923979602288E-13    0.81379347705023974413E-13
change in fa due to symmetrization =    -0.12226331058684536401E-12   -0.29087843245179101359E-13   -0.64948046940571657615E-13
change in fa due to symmetrization =     0.33639757646142243175E-13   -0.11723955140041653067E-12    0.72053474298172659473E-13
change in fa due to symmetrization =    -0.32085445411667024018E-13    0.12334577803585489164E-12   -0.66280314570121845463E-13
Max change in any component of stress due to symmetrization =     0.1914701037E-15
change in fa due to symmetrization =    -0.12126410986468272313E-12   -0.37414515929867775412E-13    0.68278716014447127236E-13
change in fa due to symmetrization =     0.12001510896197942202E-12    0.33417713041217211867E-13   -0.78714812445923598716E-13
change in fa due to symmetrization =    -0.27200464103316335240E-13    0.32529534621517086634E-13    0.57481797099967479880E-13
    0.3608360355E-18   -0.2254462892E-16    0.1702197411E-15
Max change in any component of stress due to symmetrization =     0.1914701037E-15
change in fa due to symmetrization =     0.31197266991966898786E-13   -0.21205259770340489922E-13   -0.57093219041348675091E-13
change in fa due to symmetrization =     0.10469403122215226176E-12   -0.63227201252402664977E-13    0.16653345369377348106E-13
change in fa due to symmetrization =    -0.99920072216264088638E-13    0.61034510778767980810E-13   -0.91038288019262836315E-14
change in fa due to symmetrization =    -0.31086244689504383132E-13   -0.18762769116165145533E-13   -0.53970716784590422321E-13
change in fa due to symmetrization =     0.31641356201816961402E-13    0.24980018054066022160E-13    0.54595217235942072875E-13
change in fa due to symmetrization =     0.98476782284251385136E-13    0.62089222652161879523E-13   -0.32307490016592055326E-13
change in fa due to symmetrization =    -0.10391687510491465218E-12   -0.61312066534924269945E-13    0.47739590058881731238E-14
change in fa due to symmetrization =     0.30864200084579351824E-13    0.26978419498391303932E-13   -0.52818860396541822411E-13
change in fa due to symmetrization =    -0.33639757646142243175E-13   -0.22537527399890677771E-13    0.58730798002670780988E-13
change in fa due to symmetrization =    -0.10313971898767704261E-12   -0.62033711500930621696E-13   -0.83266726846886740532E-14
change in fa due to symmetrization =     0.10025313912365163560E-12    0.62144733803393137350E-13    0.24202861936828412581E-13
change in fa due to symmetrization =     0.30975222387041867478E-13   -0.16986412276764895068E-13    0.54872772992098362010E-13
change in fa due to symmetrization =    -0.33750779948604758829E-13    0.20539125955565395998E-13   -0.54900528567713990924E-13
change in fa due to symmetrization =    -0.10180745135812685476E-12    0.61797789108197775931E-13    0.85487172896137053613E-14
change in fa due to symmetrization =     0.10236256287043943303E-12   -0.67501559897209517658E-13   -0.11990408665951690637E-13
change in fa due to symmetrization =     0.66530114750662505685E-13    0.10980105713542798185E-12    0.22759572004815709079E-13
change in fa due to symmetrization =    -0.65988881026157741871E-13   -0.10680345496894005919E-12   -0.24980018054066022160E-13
change in fa due to symmetrization =     0.19095836023552692495E-13   -0.31197266991966898786E-13   -0.60548788205494474823E-13
change in fa due to symmetrization =    -0.15543122344752191566E-13    0.35416114485542493640E-13    0.54428683782248299394E-13
change in fa due to symmetrization =    -0.66419092448199990031E-13    0.10835776720341527835E-12   -0.54400928206632670481E-14
change in fa due to symmetrization =     0.66738281567779722536E-13   -0.96589403142388619017E-13    0.16098233857064769836E-13
change in fa due to symmetrization =    -0.18762769116165145533E-13   -0.35638159090467524948E-13    0.55094817597023393319E-13
change in fa due to symmetrization =     0.20095036745715333382E-13    0.23425705819590803003E-13   -0.53568260938163803075E-13
change in fa due to symmetrization =    -0.65947247662734298501E-13   -0.94591001698063337244E-13    0.10658141036401502788E-13
change in fa due to symmetrization =     0.66918692809281310474E-13    0.99587005308876541676E-13   -0.58841820305133296642E-14
change in fa due to symmetrization =    -0.15099033134902128950E-13    0.33195668436292180559E-13   -0.56010751592339147464E-13
change in fa due to symmetrization =     0.20206059048177849036E-13   -0.32973623831367149251E-13    0.60854099537266392872E-13
change in fa due to symmetrization =     0.66419092448199990031E-13   -0.95257135512838431168E-13   -0.89928064994637679774E-14
change in fa due to symmetrization =    -0.66169292267659329809E-13    0.10402789740737716784E-12    0.85487172896137053613E-14
change in fa due to symmetrization =     0.14543921622589550680E-13    0.24202861936828412581E-13    0.58064664187895687064E-13
change in fa due to symmetrization =    -0.20539125955565395998E-13   -0.37303493627405259758E-13   -0.57620574978045624448E-13
Max change in any component of fa due to symmetrization =     0.1241090564E-12
Max relative change =     0.1019075574E-11
old  stress = 
   -0.1866846932E-02   -0.1182457994E-17   -0.4269046054E-18
   -0.9469828350E-18   -0.1866846932E-02    0.2214144124E-16
   -0.3608360355E-18    0.2254462892E-16   -0.1866846932E-02
stress with symmetrization = 
   -0.1866846932E-02    0.0000000000E+00    0.0000000000E+00
    0.0000000000E+00   -0.1866846932E-02    0.0000000000E+00
    0.0000000000E+00    0.0000000000E+00   -0.1866846932E-02
change in components of stress due to symmetrization = 
   -0.1914701037E-15    0.1182457994E-17    0.4269046054E-18
    0.9469828350E-18    0.1973247954E-16   -0.2214144124E-16
    0.3608360355E-18   -0.2254462892E-16    0.1702197411E-15
Max change in any component of stress due to symmetrization =     0.1914701037E-15
change in fa due to symmetrization =     0.10236256287043943303E-12   -0.67501559897209517658E-13   -0.11990408665951690637E-13
change in fa due to symmetrization =     0.66530114750662505685E-13    0.10980105713542798185E-12    0.22759572004815709079E-13
change in fa due to symmetrization =    -0.65988881026157741871E-13   -0.10680345496894005919E-12   -0.24980018054066022160E-13
change in fa due to symmetrization =     0.19095836023552692495E-13   -0.31197266991966898786E-13   -0.60548788205494474823E-13
change in fa due to symmetrization =    -0.15543122344752191566E-13    0.35416114485542493640E-13    0.54428683782248299394E-13
change in fa due to symmetrization =    -0.66419092448199990031E-13    0.10835776720341527835E-12   -0.54400928206632670481E-14
change in fa due to symmetrization =     0.66738281567779722536E-13   -0.96589403142388619017E-13    0.16098233857064769836E-13
change in fa due to symmetrization =    -0.18762769116165145533E-13   -0.35638159090467524948E-13    0.55094817597023393319E-13
change in fa due to symmetrization =     0.20095036745715333382E-13    0.23425705819590803003E-13   -0.53568260938163803075E-13
change in fa due to symmetrization =    -0.65947247662734298501E-13   -0.94591001698063337244E-13    0.10658141036401502788E-13
change in fa due to symmetrization =     0.66918692809281310474E-13    0.99587005308876541676E-13   -0.58841820305133296642E-14
change in fa due to symmetrization =    -0.15099033134902128950E-13    0.33195668436292180559E-13   -0.56010751592339147464E-13
change in fa due to symmetrization =     0.20206059048177849036E-13   -0.32973623831367149251E-13    0.60854099537266392872E-13
change in fa due to symmetrization =     0.66419092448199990031E-13   -0.95257135512838431168E-13   -0.89928064994637679774E-14
change in fa due to symmetrization =    -0.66169292267659329809E-13    0.10402789740737716784E-12    0.85487172896137053613E-14
change in fa due to symmetrization =     0.14543921622589550680E-13    0.24202861936828412581E-13    0.58064664187895687064E-13
change in fa due to symmetrization =    -0.20539125955565395998E-13   -0.37303493627405259758E-13   -0.57620574978045624448E-13
Max change in any component of fa due to symmetrization =     0.1241090564E-12
Max relative change =     0.1019075574E-11
old  stress = 
   -0.1866846932E-02   -0.1182457994E-17   -0.4269046054E-18
   -0.9469828350E-18   -0.1866846932E-02    0.2214144124E-16
   -0.3608360355E-18    0.2254462892E-16   -0.1866846932E-02
stress with symmetrization = 
   -0.1866846932E-02    0.0000000000E+00    0.0000000000E+00
    0.0000000000E+00   -0.1866846932E-02    0.0000000000E+00
    0.0000000000E+00    0.0000000000E+00   -0.1866846932E-02
change in components of stress due to symmetrization = 
   -0.1914701037E-15    0.1182457994E-17    0.4269046054E-18
    0.9469828350E-18    0.1973247954E-16   -0.2214144124E-16
    0.3608360355E-18   -0.2254462892E-16    0.1702197411E-15
Max change in any component of stress due to symmetrization =     0.1914701037E-15

siesta: Atomic forces (eV/Ang):
----------------------------------------
   Tot    0.000000    0.000000   -0.000000
----------------------------------------
   Max   19.619048
   Res   14.104066    sqrt( Sum f_i^2 / 3N )
----------------------------------------
   Max   19.619048    constrained

Stress-tensor-Voigt (kbar):     -274.63     -274.63     -274.63        0.00        0.00        0.00
(Free)E + p*V (eV/cell)     -533.1493
Target enthalpy (eV/cell)     -620.9099

siesta: Program's energy decomposition (eV):
siesta: Ebs     =         0.000000
siesta: Eions   =       945.951434
siesta: Ena     =       395.979321
siesta: Ekin    =       606.891014
siesta: Enl     =      -244.148130
siesta: Eso     =         0.000000
siesta: Eldau   =         0.000000
siesta: DEna    =         0.000007
siesta: DUscf   =         0.000000
siesta: DUext   =         0.000000
siesta: Enegf   =         0.000000
siesta: Exc     =      -433.680715
siesta: eta*DQ  =         0.000000
siesta: Emadel  =         0.000000
siesta: Emeta   =         0.000000
siesta: Emolmec =         0.000000
siesta: Ekinion =         0.000000
siesta: Eharris =         0.000000
siesta: Etot    =      -620.909936
siesta: FreeEng =      -620.909936

siesta: Final energy (eV):
siesta:  Band Struct. =       0.000000
siesta:       Kinetic =     606.891014
siesta:       Hartree =     566.145313
siesta:       Eldau   =       0.000000
siesta:       Eso     =       0.000000
siesta:    Ext. field =       0.000000
siesta:       Enegf   =       0.000000
siesta:   Exch.-corr. =    -433.680715
siesta:  Ion-electron =   -1998.901745
siesta:       Ion-ion =     638.636196
siesta:       Ekinion =       0.000000
siesta:         Total =    -620.909936
siesta:         Fermi =       0.000000

siesta: Atomic forces (eV/Ang):
siesta:      1   14.214857    3.131268  -19.619048
siesta:      2  -19.619048   14.214857    3.131268
siesta:      3  -14.214857   -3.131268  -19.619048
siesta:      4  -14.214857    3.131268   19.619048
siesta:      5    3.131268   14.214857   19.619048
siesta:      6    3.131268  -19.619048   14.214857
siesta:      7  -19.619048  -14.214857   -3.131268
siesta:      8   19.619048  -14.214857    3.131268
siesta:      9   19.619048    3.131268   14.214857
siesta:     10   14.214857   -3.131268   19.619048
siesta:     11   -3.131268  -14.214857   19.619048
siesta:     12   19.619048   14.214857   -3.131268
siesta:     13   -3.131268   14.214857  -19.619048
siesta:     14   14.214857  -19.619048   -3.131268
siesta:     15    3.131268  -14.214857  -19.619048
siesta:     16   -3.131268  -19.619048  -14.214857
siesta:     17    3.131268   19.619048  -14.214857
siesta:     18   14.214857   19.619048    3.131268
siesta:     19   19.619048   -3.131268  -14.214857
siesta:     20   -3.131268   19.619048   14.214857
siesta:     21  -19.619048   -3.131268   14.214857
siesta:     22  -19.619048    3.131268  -14.214857
siesta:     23  -14.214857   19.619048   -3.131268
siesta:     24  -14.214857  -19.619048    3.131268
siesta:     25  -14.214857   -3.131268   19.619048
siesta:     26   19.619048  -14.214857   -3.131268
siesta:     27   14.214857    3.131268   19.619048
siesta:     28   14.214857   -3.131268  -19.619048
siesta:     29   -3.131268  -14.214857  -19.619048
siesta:     30   -3.131268   19.619048  -14.214857
siesta:     31   19.619048   14.214857    3.131268
siesta:     32  -19.619048   14.214857   -3.131268
siesta:     33  -19.619048   -3.131268  -14.214857
siesta:     34  -14.214857    3.131268  -19.619048
siesta:     35    3.131268   14.214857  -19.619048
siesta:     36  -19.619048  -14.214857    3.131268
siesta:     37    3.131268  -14.214857   19.619048
siesta:     38  -14.214857   19.619048    3.131268
siesta:     39   -3.131268   14.214857   19.619048
siesta:     40    3.131268   19.619048   14.214857
siesta:     41   -3.131268  -19.619048   14.214857
siesta:     42  -14.214857  -19.619048   -3.131268
siesta:     43  -19.619048    3.131268   14.214857
siesta:     44    3.131268  -19.619048  -14.214857
siesta:     45   19.619048    3.131268  -14.214857
siesta:     46   19.619048   -3.131268   14.214857
siesta:     47   14.214857  -19.619048    3.131268
siesta:     48   14.214857   19.619048   -3.131268
siesta: ----------------------------------------
siesta:    Tot    0.000000    0.000000   -0.000000

siesta: Stress tensor (static) (eV/Ang**3):
siesta:    -0.171408    0.000000    0.000000
siesta:     0.000000   -0.171408    0.000000
siesta:     0.000000    0.000000   -0.171408

siesta: Cell volume =        512.000000 Ang**3

siesta: Pressure (static):
siesta:                Solid            Molecule  Units
siesta:           0.00186685         -0.00166288  Ry/Bohr**3
siesta:           0.17140754         -0.15268031  eV/Ang**3
siesta:         274.62811842       -244.62346515  kBar
(Free)E+ p_basis*V_orbitals  =        -610.406925
(Free)Eharris+ p_basis*V_orbitals  =          10.503012

>> End of run:   2-APR-2019  17:13:44
Job completed
