
                           ************************       
                           *  WELCOME TO TBTRANS  *       
                           ************************       

reinit: Reading from standard input
************************** Dump of input data file ****************************
SystemName  scat.fast
SystemLabel scat.fast
==================================================
==================================================
# SPECIES AND BASIS
# Number of species
NumberOfSpecies 1
%block ChemicalSpeciesLabel
  1  1 H
%endblock ChemicalSpeciesLabel
PAO.BasisSize    SZ
PAO.EnergyShift  0.05 Ry
==================================================
==================================================
# K-points
%block kgrid_Monkhorst_Pack
3   0   0   0.0
0   3   0   0.0
0   0   60  0.5
%endblock kgrid_Monkhorst_Pack
==================================================
==================================================
# UNIT CELL AND ATOMIC POSITIONS
# UNIT CELL
LatticeConstant       2.92311 Ang
%block LatticeVectors
1.000000000   0.00000000000   0.0000000000
0.500000000   0.86602540378   0.0000000000
0.000000000   0.00000000000   2.4494897428
%endblock LatticeVectors
# Atomic coordinates
NumberOfAtoms 3
AtomicCoordinatesFormat ScaledCartesian
%block AtomicCoordinatesAndAtomicSpecies
       0.000000000       0.000000000       0.000000000    1
       0.500000000       0.288675135       0.816496581    1
       0.500000000      -0.288675135       1.632993162    1
%endblock AtomicCoordinatesAndAtomicSpecies
%block SuperCell
1 0 0
0 1 0
0 0 3
%endblock SuperCell
==================================================
==================================================
# General variables
ElectronicTemperature  100 K
MeshCutoff           350. Ry
xc.functional         LDA           # Exchange-correlation functional
xc.authors            CA
SpinPolarized .false.
SolutionMethod Transiesta
==================================================
==================================================
# SCF variables
DM.MixSCF1   T
MaxSCFIterations      300           # Maximum number of SCF iter
DM.MixingWeight       0.03          # New DM amount for next SCF cycle
DM.Tolerance          1.d-4         # Tolerance in maximum difference
DM.UseSaveDM          true          # to use continuation files
DM.NumberPulay         5
Diag.DivideAndConquer  no
Diag.ParallelOverK     yes
==================================================
==================================================
# MD variables
MD.FinalTimeStep 1
MD.TypeOfRun CG
MD.NumCGsteps     000
MD.UseSaveXV      .true.
==================================================
==================================================
# Output variables
WriteMullikenPop                1
WriteBands                      .false.
SaveRho                         .false.
SaveDeltaRho                    .false.
SaveHS                          .false.
SaveElectrostaticPotential      True
SaveTotalPotential              no
WriteCoorXmol                   .true.
WriteMDXmol                     .true.
WriteMDhistory                  .false.
WriteEigenvalues                yes
==================================================
==================================================
# Transiesta information
# GF OPTIONS
TS.ComplexContour.Emin    -30.0 eV
TS.ComplexContour.NPoles       03
TS.ComplexContour.NCircle      30
TS.ComplexContour.NLine        10
# BIAS OPTIONS
TS.biasContour.NumPoints       00
# TS OPTIONS
TS.Voltage 0.000000 eV
# TBT OPTIONS
TS.TBT.Emin -1.0 eV
TS.TBT.Emax +1.0 eV
TS.TBT.NPoints 100
TS.TBT.NEigen 3
TS.TBT.Eta        0.000001 Ry
# Write hamiltonian
TS.SaveHS   .true.
# LEFT ELECTRODE
TS.HSFileLeft  ./elec.fast.TSHS
TS.ReplicateA1Left    1
TS.ReplicateA2Left    1
TS.NumUsedAtomsLeft   03
TS.BufferAtomsLeft    0
# RIGHT ELECTRODE
TS.HSFileRight  ./elec.fast.TSHS
TS.ReplicateA1Right   1
TS.ReplicateA2Right   1
TS.NumUsedAtomsRight  03
TS.BufferAtomsRight   0
==================================================
==================================================
************************** End of input data file *****************************

reinit: -----------------------------------------------------------------------
reinit: System Name: scat.fast
reinit: -----------------------------------------------------------------------
reinit: System Label: scat.fast                                                   
reinit: -----------------------------------------------------------------------
tbtrans: Voltage                         =     0.0000
Emin,Emax =      -0.999999      0.999999
Energy points in tbtrans =        100
tbtrans: Spin-polarized =  F
 contour:  Simple Line Contour:
 contour:     -0.07350      0.00000      0.001484808     0.000000000   1
 contour:     -0.07201      0.00000      0.001484808     0.000000000   2
 contour:     -0.07053      0.00000      0.001484808     0.000000000   3
 contour:     -0.06904      0.00000      0.001484808     0.000000000   4
 contour:     -0.06756      0.00000      0.001484808     0.000000000   5
 contour:     -0.06607      0.00000      0.001484808     0.000000000   6
 contour:     -0.06459      0.00000      0.001484808     0.000000000   7
 contour:     -0.06310      0.00000      0.001484808     0.000000000   8
 contour:     -0.06162      0.00000      0.001484808     0.000000000   9
 contour:     -0.06013      0.00000      0.001484808     0.000000000  10
 contour:     -0.05865      0.00000      0.001484808     0.000000000  11
 contour:     -0.05717      0.00000      0.001484808     0.000000000  12
 contour:     -0.05568      0.00000      0.001484808     0.000000000  13
 contour:     -0.05420      0.00000      0.001484808     0.000000000  14
 contour:     -0.05271      0.00000      0.001484808     0.000000000  15
 contour:     -0.05123      0.00000      0.001484808     0.000000000  16
 contour:     -0.04974      0.00000      0.001484808     0.000000000  17
 contour:     -0.04826      0.00000      0.001484808     0.000000000  18
 contour:     -0.04677      0.00000      0.001484808     0.000000000  19
 contour:     -0.04529      0.00000      0.001484808     0.000000000  20
 contour:     -0.04380      0.00000      0.001484808     0.000000000  21
 contour:     -0.04232      0.00000      0.001484808     0.000000000  22
 contour:     -0.04083      0.00000      0.001484808     0.000000000  23
 contour:     -0.03935      0.00000      0.001484808     0.000000000  24
 contour:     -0.03786      0.00000      0.001484808     0.000000000  25
 contour:     -0.03638      0.00000      0.001484808     0.000000000  26
 contour:     -0.03489      0.00000      0.001484808     0.000000000  27
 contour:     -0.03341      0.00000      0.001484808     0.000000000  28
 contour:     -0.03192      0.00000      0.001484808     0.000000000  29
 contour:     -0.03044      0.00000      0.001484808     0.000000000  30
 contour:     -0.02895      0.00000      0.001484808     0.000000000  31
 contour:     -0.02747      0.00000      0.001484808     0.000000000  32
 contour:     -0.02598      0.00000      0.001484808     0.000000000  33
 contour:     -0.02450      0.00000      0.001484808     0.000000000  34
 contour:     -0.02301      0.00000      0.001484808     0.000000000  35
 contour:     -0.02153      0.00000      0.001484808     0.000000000  36
 contour:     -0.02004      0.00000      0.001484808     0.000000000  37
 contour:     -0.01856      0.00000      0.001484808     0.000000000  38
 contour:     -0.01708      0.00000      0.001484808     0.000000000  39
 contour:     -0.01559      0.00000      0.001484808     0.000000000  40
 contour:     -0.01411      0.00000      0.001484808     0.000000000  41
 contour:     -0.01262      0.00000      0.001484808     0.000000000  42
 contour:     -0.01114      0.00000      0.001484808     0.000000000  43
 contour:     -0.00965      0.00000      0.001484808     0.000000000  44
 contour:     -0.00817      0.00000      0.001484808     0.000000000  45
 contour:     -0.00668      0.00000      0.001484808     0.000000000  46
 contour:     -0.00520      0.00000      0.001484808     0.000000000  47
 contour:     -0.00371      0.00000      0.001484808     0.000000000  48
 contour:     -0.00223      0.00000      0.001484808     0.000000000  49
 contour:     -0.00074      0.00000      0.001484808     0.000000000  50
 contour:      0.00074      0.00000      0.001484808     0.000000000  51
 contour:      0.00223      0.00000      0.001484808     0.000000000  52
 contour:      0.00371      0.00000      0.001484808     0.000000000  53
 contour:      0.00520      0.00000      0.001484808     0.000000000  54
 contour:      0.00668      0.00000      0.001484808     0.000000000  55
 contour:      0.00817      0.00000      0.001484808     0.000000000  56
 contour:      0.00965      0.00000      0.001484808     0.000000000  57
 contour:      0.01114      0.00000      0.001484808     0.000000000  58
 contour:      0.01262      0.00000      0.001484808     0.000000000  59
 contour:      0.01411      0.00000      0.001484808     0.000000000  60
 contour:      0.01559      0.00000      0.001484808     0.000000000  61
 contour:      0.01708      0.00000      0.001484808     0.000000000  62
 contour:      0.01856      0.00000      0.001484808     0.000000000  63
 contour:      0.02004      0.00000      0.001484808     0.000000000  64
 contour:      0.02153      0.00000      0.001484808     0.000000000  65
 contour:      0.02301      0.00000      0.001484808     0.000000000  66
 contour:      0.02450      0.00000      0.001484808     0.000000000  67
 contour:      0.02598      0.00000      0.001484808     0.000000000  68
 contour:      0.02747      0.00000      0.001484808     0.000000000  69
 contour:      0.02895      0.00000      0.001484808     0.000000000  70
 contour:      0.03044      0.00000      0.001484808     0.000000000  71
 contour:      0.03192      0.00000      0.001484808     0.000000000  72
 contour:      0.03341      0.00000      0.001484808     0.000000000  73
 contour:      0.03489      0.00000      0.001484808     0.000000000  74
 contour:      0.03638      0.00000      0.001484808     0.000000000  75
 contour:      0.03786      0.00000      0.001484808     0.000000000  76
 contour:      0.03935      0.00000      0.001484808     0.000000000  77
 contour:      0.04083      0.00000      0.001484808     0.000000000  78
 contour:      0.04232      0.00000      0.001484808     0.000000000  79
 contour:      0.04380      0.00000      0.001484808     0.000000000  80
 contour:      0.04529      0.00000      0.001484808     0.000000000  81
 contour:      0.04677      0.00000      0.001484808     0.000000000  82
 contour:      0.04826      0.00000      0.001484808     0.000000000  83
 contour:      0.04974      0.00000      0.001484808     0.000000000  84
 contour:      0.05123      0.00000      0.001484808     0.000000000  85
 contour:      0.05271      0.00000      0.001484808     0.000000000  86
 contour:      0.05420      0.00000      0.001484808     0.000000000  87
 contour:      0.05568      0.00000      0.001484808     0.000000000  88
 contour:      0.05717      0.00000      0.001484808     0.000000000  89
 contour:      0.05865      0.00000      0.001484808     0.000000000  90
 contour:      0.06013      0.00000      0.001484808     0.000000000  91
 contour:      0.06162      0.00000      0.001484808     0.000000000  92
 contour:      0.06310      0.00000      0.001484808     0.000000000  93
 contour:      0.06459      0.00000      0.001484808     0.000000000  94
 contour:      0.06607      0.00000      0.001484808     0.000000000  95
 contour:      0.06756      0.00000      0.001484808     0.000000000  96
 contour:      0.06904      0.00000      0.001484808     0.000000000  97
 contour:      0.07053      0.00000      0.001484808     0.000000000  98
 contour:      0.07201      0.00000      0.001484808     0.000000000  99
 contour:      0.07350      0.00000      0.001484808     0.000000000 100
 
************************************************************************
 K-Points On Nodes:
 
 Node  Numb. K Pts.  Tot. K Pts. 
  0        1            6
  1        2            6
  2        2            6
  3        1            6
------------------------------------------------------------------------
 K-Points Coordinates and Weights (Node,kx,ky,kz,wk),:
 
        0    -0.37915     0.21890     0.00000     0.11111
        1     0.00000     0.00000     0.00000     0.11111
        1     0.37915    -0.21890     0.00000     0.11111
        2    -0.37915     0.65671     0.00000     0.22222
        2     0.00000     0.43781     0.00000     0.22222
        3     0.37915     0.21890     0.00000     0.22222
************************************************************************
 
 unit cell:
  5.5239  0.0000  0.0000
  2.7619  4.7838  0.0000
  0.0000  0.0000 13.5307
 unit cell:
  5.5239  0.0000  0.0000
  2.7619  4.7838  0.0000
  0.0000  0.0000 13.5307
 ==============================================================
  Projection Region: atoms : [  4;  6 ]
  Projection Region: states: [  1;  3 ] ;  3
 
  Starting K-Point loop for spin:   1
 
 Transport for spin ->  1  , kxy-point ->   1, of Node     0
           kxy=(-.379 0.219 0.000 ),w= 0.1111
    E           T(E)            TotDOS         PDOS
 -1.00000  0.99999999E+00  0.41744768E+02  0.41338490E+02
 -0.97980  0.99999999E+00  0.40206499E+02  0.39826005E+02
 -0.95959  0.99999999E+00  0.38857920E+02  0.38500633E+02
 -0.93939  0.99999999E+00  0.37665123E+02  0.37328923E+02
 -0.91919  0.99999999E+00  0.36602170E+02  0.36285286E+02
 -0.89899  0.99999999E+00  0.35648835E+02  0.35349772E+02
 -0.87879  0.99999999E+00  0.34789092E+02  0.34506574E+02
 -0.85858  0.99999999E+00  0.34010058E+02  0.33742984E+02
 -0.83838  0.10000000E+01  0.33301246E+02  0.33048662E+02
 -0.81818  0.10000000E+01  0.32654024E+02  0.32415094E+02
 -0.79798  0.10000000E+01  0.32061219E+02  0.31835208E+02
 -0.77778  0.10000000E+01  0.31516812E+02  0.31303071E+02
 -0.75757  0.10000000E+01  0.31015721E+02  0.30813670E+02
 -0.73737  0.10000000E+01  0.30553610E+02  0.30362735E+02
 -0.71717  0.10000000E+01  0.30126778E+02  0.29946616E+02
 -0.69697  0.10000000E+01  0.29732025E+02  0.29562160E+02
 -0.67677  0.10000000E+01  0.29366584E+02  0.29206642E+02
 -0.65656  0.10000000E+01  0.29028048E+02  0.28877689E+02
 -0.63636  0.99999999E+00  0.28714310E+02  0.28573229E+02
 -0.61616  0.99999999E+00  0.28423527E+02  0.28291446E+02
 -0.59596  0.99999999E+00  0.28154076E+02  0.28030741E+02
 -0.57576  0.99999999E+00  0.27904524E+02  0.27789707E+02
 -0.55555  0.99999999E+00  0.27673608E+02  0.27567099E+02
 -0.53535  0.99999999E+00  0.27460205E+02  0.27361816E+02
 -0.51515  0.99999999E+00  0.27263324E+02  0.27172882E+02
 -0.49495  0.99999999E+00  0.27082083E+02  0.26999432E+02
 -0.47475  0.99999999E+00  0.26915701E+02  0.26840699E+02
 -0.45454  0.99999999E+00  0.26763485E+02  0.26696005E+02
 -0.43434  0.99999999E+00  0.26624823E+02  0.26564748E+02
 -0.41414  0.99999999E+00  0.26499173E+02  0.26446402E+02
 -0.39394  0.99999999E+00  0.26386061E+02  0.26340500E+02
 -0.37374  0.99999999E+00  0.26285071E+02  0.26246639E+02
 -0.35353  0.99999999E+00  0.26195842E+02  0.26164468E+02
 -0.33333  0.10000000E+01  0.26118066E+02  0.26093688E+02
 -0.31313  0.10000000E+01  0.26051480E+02  0.26034046E+02
 -0.29293  0.10000000E+01  0.25995868E+02  0.25985335E+02
 -0.27273  0.10000000E+01  0.25951058E+02  0.25947391E+02
 -0.25252  0.10000000E+01  0.25916916E+02  0.25920088E+02
 -0.23232  0.10000000E+01  0.25893350E+02  0.25903344E+02
 -0.21212  0.10000000E+01  0.25880306E+02  0.25897113E+02
 -0.19192  0.10000000E+01  0.25877769E+02  0.25901388E+02
 -0.17172  0.10000000E+01  0.25885762E+02  0.25916201E+02
 -0.15151  0.10000000E+01  0.25904348E+02  0.25941621E+02
 -0.13131  0.10000000E+01  0.25933627E+02  0.25977759E+02
 -0.11111  0.10000000E+01  0.25973742E+02  0.26024766E+02
 -0.09091  0.10000000E+01  0.26024875E+02  0.26082833E+02
 -0.07071  0.10000000E+01  0.26087255E+02  0.26152199E+02
 -0.05050  0.10000000E+01  0.26161157E+02  0.26233147E+02
 -0.03030  0.10000000E+01  0.26246905E+02  0.26326011E+02
 -0.01010  0.10000000E+01  0.26344875E+02  0.26431180E+02
  0.01010  0.10000000E+01  0.26455505E+02  0.26549099E+02
  0.03030  0.10000000E+01  0.26579291E+02  0.26680281E+02
  0.05050  0.10000000E+01  0.26716803E+02  0.26825304E+02
  0.07071  0.10000000E+01  0.26868684E+02  0.26984827E+02
  0.09091  0.10000000E+01  0.27035666E+02  0.27159595E+02
  0.11111  0.10000000E+01  0.27218572E+02  0.27350449E+02
  0.13131  0.10000000E+01  0.27418338E+02  0.27558340E+02
  0.15151  0.10000000E+01  0.27636018E+02  0.27784342E+02
  0.17172  0.10000000E+01  0.27872806E+02  0.28029669E+02
  0.19192  0.10000000E+01  0.28130056E+02  0.28295699E+02
  0.21212  0.10000000E+01  0.28409305E+02  0.28583993E+02
  0.23232  0.10000000E+01  0.28712303E+02  0.28896330E+02
  0.25252  0.10000000E+01  0.29041052E+02  0.29234741E+02
  0.27273  0.99999999E+00  0.29397834E+02  0.29601550E+02
  0.29293  0.99999999E+00  0.29785292E+02  0.29999436E+02
  0.31313  0.99999999E+00  0.30206469E+02  0.30431489E+02
  0.33333  0.99999999E+00  0.30664905E+02  0.30901303E+02
  0.35353  0.99999999E+00  0.31164735E+02  0.31413076E+02
  0.37374  0.99999999E+00  0.31710822E+02  0.31971741E+02
  0.39394  0.99999998E+00  0.32308926E+02  0.32583143E+02
  0.41414  0.99999998E+00  0.32965923E+02  0.33254260E+02
  0.43434  0.99999998E+00  0.33690094E+02  0.33993491E+02
  0.45454  0.99999998E+00  0.34491512E+02  0.34811056E+02
  0.47475  0.99999997E+00  0.35382570E+02  0.35719525E+02
  0.49495  0.99999997E+00  0.36378703E+02  0.36734553E+02
  0.51515  0.99999996E+00  0.37499421E+02  0.37875926E+02
  0.53535  0.99999995E+00  0.38769787E+02  0.39169064E+02
  0.55555  0.99999995E+00  0.40222628E+02  0.40647255E+02
  0.57576  0.99999994E+00  0.41901906E+02  0.42355076E+02
  0.59596  0.99999993E+00  0.43868084E+02  0.44353835E+02
  0.61616  0.99999992E+00  0.46207017E+02  0.46730582E+02
  0.63636  0.99999990E+00  0.49045508E+02  0.49613876E+02
  0.65656  0.99999988E+00  0.52580339E+02  0.53203215E+02
  0.67677  0.99999986E+00  0.57137174E+02  0.57828741E+02
  0.69697  0.99999982E+00  0.63304102E+02  0.64086602E+02
  0.71717  0.99999977E+00  0.72285436E+02  0.73197545E+02
  0.73737  0.99999969E+00  0.87092743E+02  0.88214081E+02
  0.75757  0.99999953E+00  0.11875977E+03  0.12031934E+03
  0.77778  0.99999988E+00  0.34138992E+03  0.34596076E+03
  0.79798  0.51835078E-07  0.32054225E-01  0.32473039E-01
  0.81818  0.66570780E-08  0.81643627E-02  0.82678643E-02
  0.83838  0.19121450E-08  0.36806632E-02  0.37259869E-02
  0.85858  0.75837113E-09  0.20781291E-02  0.21030119E-02
  0.87879  0.35942230E-09  0.13262474E-02  0.13417034E-02
  0.89899  0.19096880E-09  0.91468101E-03  0.92506539E-03
  0.91919  0.10993396E-09  0.66566353E-03  0.67303191E-03
  0.93939  0.67175485E-10  0.50396977E-03  0.50941318E-03
  0.95959  0.42994223E-10  0.39330540E-03  0.39745369E-03
  0.97980  0.28558879E-10  0.31441308E-03  0.31765360E-03
  1.00000  0.19558342E-10  0.25630859E-03  0.25889167E-03
 Transport for spin ->  1  , kxy-point ->   1, of Node     1
           kxy=(0.000 0.000 0.000 ),w= 0.1111
    E           T(E)            TotDOS         PDOS
 -1.00000  0.10000000E+01  0.19136218E+02  0.19136218E+02
 -0.97980  0.99999999E+00  0.19305284E+02  0.19305284E+02
 -0.95959  0.99999999E+00  0.19483981E+02  0.19483981E+02
 -0.93939  0.99999999E+00  0.19672968E+02  0.19672968E+02
 -0.91919  0.99999999E+00  0.19872974E+02  0.19872974E+02
 -0.89899  0.99999999E+00  0.20084809E+02  0.20084809E+02
 -0.87879  0.99999999E+00  0.20309374E+02  0.20309374E+02
 -0.85858  0.99999999E+00  0.20547678E+02  0.20547678E+02
 -0.83838  0.99999999E+00  0.20800848E+02  0.20800848E+02
 -0.81818  0.99999999E+00  0.21070156E+02  0.21070156E+02
 -0.79798  0.99999999E+00  0.21357035E+02  0.21357035E+02
 -0.77778  0.99999999E+00  0.21663112E+02  0.21663112E+02
 -0.75757  0.99999998E+00  0.21990238E+02  0.21990238E+02
 -0.73737  0.99999998E+00  0.22340534E+02  0.22340534E+02
 -0.71717  0.99999998E+00  0.22716437E+02  0.22716437E+02
 -0.69697  0.99999998E+00  0.23120770E+02  0.23120770E+02
 -0.67677  0.99999998E+00  0.23556817E+02  0.23556817E+02
 -0.65656  0.99999997E+00  0.24028429E+02  0.24028429E+02
 -0.63636  0.99999997E+00  0.24540151E+02  0.24540151E+02
 -0.61616  0.99999997E+00  0.25097395E+02  0.25097395E+02
 -0.59596  0.99999997E+00  0.25706664E+02  0.25706664E+02
 -0.57576  0.99999996E+00  0.26375848E+02  0.26375848E+02
 -0.55555  0.99999996E+00  0.27114626E+02  0.27114626E+02
 -0.53535  0.99999996E+00  0.27935030E+02  0.27935030E+02
 -0.51515  0.99999995E+00  0.28852227E+02  0.28852227E+02
 -0.49495  0.99999995E+00  0.29885654E+02  0.29885654E+02
 -0.47475  0.99999994E+00  0.31060693E+02  0.31060693E+02
 -0.45454  0.99999994E+00  0.32411233E+02  0.32411233E+02
 -0.43434  0.99999993E+00  0.33983713E+02  0.33983713E+02
 -0.41414  0.99999992E+00  0.35843806E+02  0.35843806E+02
 -0.39394  0.99999991E+00  0.38088018E+02  0.38088018E+02
 -0.37374  0.99999990E+00  0.40865182E+02  0.40865182E+02
 -0.35353  0.99999988E+00  0.44419619E+02  0.44419619E+02
 -0.33333  0.99999986E+00  0.49187661E+02  0.49187661E+02
 -0.31313  0.99999982E+00  0.56048374E+02  0.56048374E+02
 -0.29293  0.99999977E+00  0.67141150E+02  0.67141150E+02
 -0.27273  0.99999968E+00  0.89864395E+02  0.89864395E+02
 -0.25252  0.99999977E+00  0.20275914E+03  0.20275914E+03
 -0.23232  0.90423519E-07  0.35207538E-01  0.35207538E-01
 -0.21212  0.11078960E-07  0.83135911E-02  0.83135911E-02
 -0.19192  0.33072255E-08  0.37244980E-02  0.37244980E-02
 -0.17172  0.13779369E-08  0.21141512E-02  0.21141512E-02
 -0.15151  0.68646624E-09  0.13606250E-02  0.13606250E-02
 -0.13131  0.38275277E-09  0.94707344E-03  0.94707344E-03
 -0.11111  0.23071783E-09  0.69565736E-03  0.69565736E-03
 -0.09091  0.14729779E-09  0.53147424E-03  0.53147424E-03
 -0.07071  0.98294646E-10  0.41842283E-03  0.41842283E-03
 -0.05050  0.67946199E-10  0.33733000E-03  0.33733000E-03
 -0.03030  0.48339452E-10  0.27723665E-03  0.27723665E-03
 -0.01010  0.35226090E-10  0.23150654E-03  0.23150654E-03
  0.01010  0.26198151E-10  0.19592947E-03  0.19592947E-03
  0.03030  0.19828236E-10  0.16772967E-03  0.16772967E-03
  0.05050  0.15237708E-10  0.14501695E-03  0.14501695E-03
  0.07071  0.11868036E-10  0.12646829E-03  0.12646829E-03
  0.09091  0.93541623E-11  0.11113536E-03  0.11113536E-03
  0.11111  0.74516187E-11  0.98324162E-04  0.98324162E-04
  0.13131  0.59931485E-11  0.87517502E-04  0.87517502E-04
  0.15151  0.48621222E-11  0.78323642E-04  0.78323642E-04
  0.17172  0.39758168E-11  0.70441557E-04  0.70441557E-04
  0.19192  0.32746517E-11  0.63636904E-04  0.63636904E-04
  0.21212  0.27151143E-11  0.57725097E-04  0.57725097E-04
  0.23232  0.22650227E-11  0.52559183E-04  0.52559183E-04
  0.25252  0.19002983E-11  0.48021027E-04  0.48021027E-04
  0.27273  0.16027335E-11  0.44014808E-04  0.44014808E-04
  0.29293  0.13584247E-11  0.40462166E-04  0.40462166E-04
  0.31313  0.11566586E-11  0.37298533E-04  0.37298533E-04
  0.33333  0.98911025E-12  0.34470332E-04  0.34470332E-04
  0.35353  0.84926047E-12  0.31932814E-04  0.31932814E-04
  0.37374  0.73196635E-12  0.29648379E-04  0.29648379E-04
  0.39394  0.63314318E-12  0.27585253E-04  0.27585253E-04
  0.41414  0.54952586E-12  0.25716443E-04  0.25716443E-04
  0.43434  0.47848873E-12  0.24018904E-04  0.24018904E-04
  0.45454  0.41790839E-12  0.22472872E-04  0.22472872E-04
  0.47475  0.36605840E-12  0.21061316E-04  0.21061316E-04
  0.49495  0.32152800E-12  0.19769507E-04  0.19769507E-04
  0.51515  0.28315886E-12  0.18584652E-04  0.18584652E-04
  0.53535  0.24999559E-12  0.17495599E-04  0.17495599E-04
  0.55555  0.22124682E-12  0.16492595E-04  0.16492595E-04
  0.57576  0.19625431E-12  0.15567078E-04  0.15567078E-04
  0.59596  0.17446844E-12  0.14711512E-04  0.14711512E-04
  0.61616  0.15542858E-12  0.13919241E-04  0.13919241E-04
  0.63636  0.13874730E-12  0.13184372E-04  0.13184372E-04
  0.65656  0.12409764E-12  0.12501669E-04  0.12501669E-04
  0.67677  0.11120276E-12  0.11866474E-04  0.11866474E-04
  0.69697  0.99827543E-13  0.11274626E-04  0.11274626E-04
  0.71717  0.89771695E-13  0.10722405E-04  0.10722405E-04
  0.73737  0.80864113E-13  0.10206473E-04  0.10206473E-04
  0.75757  0.72958216E-13  0.97238321E-05  0.97238321E-05
  0.77778  0.65928106E-13  0.92717809E-05  0.92717809E-05
  0.79798  0.59665368E-13  0.88478826E-05  0.88478826E-05
  0.81818  0.54076416E-13  0.84499337E-05  0.84499337E-05
  0.83838  0.49080273E-13  0.80759381E-05  0.80759381E-05
  0.85858  0.44606710E-13  0.77240847E-05  0.77240847E-05
  0.87879  0.40594688E-13  0.73927269E-05  0.73927269E-05
  0.89899  0.36991041E-13  0.70803657E-05  0.70803657E-05
  0.91919  0.33749365E-13  0.67856338E-05  0.67856338E-05
  0.93939  0.30829077E-13  0.65072823E-05  0.65072823E-05
  0.95959  0.28194616E-13  0.62441688E-05  0.62441688E-05
  0.97980  0.25814766E-13  0.59952468E-05  0.59952468E-05
  1.00000  0.23662072E-13  0.57595563E-05  0.57595563E-05
 Transport for spin ->  1  , kxy-point ->   2, of Node     1
           kxy=(0.379 -.219 0.000 ),w= 0.1111
    E           T(E)            TotDOS         PDOS
 -1.00000  0.99999999E+00  0.41744768E+02  0.41338490E+02
 -0.97980  0.99999999E+00  0.40206499E+02  0.39826005E+02
 -0.95959  0.99999999E+00  0.38857920E+02  0.38500633E+02
 -0.93939  0.99999999E+00  0.37665123E+02  0.37328923E+02
 -0.91919  0.99999999E+00  0.36602170E+02  0.36285286E+02
 -0.89899  0.99999999E+00  0.35648835E+02  0.35349772E+02
 -0.87879  0.99999999E+00  0.34789092E+02  0.34506574E+02
 -0.85858  0.99999999E+00  0.34010058E+02  0.33742984E+02
 -0.83838  0.10000000E+01  0.33301246E+02  0.33048662E+02
 -0.81818  0.10000000E+01  0.32654024E+02  0.32415094E+02
 -0.79798  0.10000000E+01  0.32061219E+02  0.31835208E+02
 -0.77778  0.10000000E+01  0.31516812E+02  0.31303071E+02
 -0.75757  0.10000000E+01  0.31015721E+02  0.30813670E+02
 -0.73737  0.10000000E+01  0.30553610E+02  0.30362735E+02
 -0.71717  0.10000000E+01  0.30126778E+02  0.29946616E+02
 -0.69697  0.10000000E+01  0.29732025E+02  0.29562160E+02
 -0.67677  0.10000000E+01  0.29366584E+02  0.29206642E+02
 -0.65656  0.10000000E+01  0.29028048E+02  0.28877689E+02
 -0.63636  0.99999999E+00  0.28714310E+02  0.28573229E+02
 -0.61616  0.99999999E+00  0.28423527E+02  0.28291446E+02
 -0.59596  0.99999999E+00  0.28154076E+02  0.28030741E+02
 -0.57576  0.99999999E+00  0.27904524E+02  0.27789707E+02
 -0.55555  0.99999999E+00  0.27673608E+02  0.27567099E+02
 -0.53535  0.99999999E+00  0.27460205E+02  0.27361816E+02
 -0.51515  0.99999999E+00  0.27263324E+02  0.27172882E+02
 -0.49495  0.99999999E+00  0.27082083E+02  0.26999432E+02
 -0.47475  0.99999999E+00  0.26915701E+02  0.26840699E+02
 -0.45454  0.99999999E+00  0.26763485E+02  0.26696005E+02
 -0.43434  0.99999999E+00  0.26624823E+02  0.26564748E+02
 -0.41414  0.99999999E+00  0.26499173E+02  0.26446402E+02
 -0.39394  0.99999999E+00  0.26386061E+02  0.26340500E+02
 -0.37374  0.99999999E+00  0.26285071E+02  0.26246639E+02
 -0.35353  0.99999999E+00  0.26195842E+02  0.26164468E+02
 -0.33333  0.10000000E+01  0.26118066E+02  0.26093688E+02
 -0.31313  0.10000000E+01  0.26051480E+02  0.26034046E+02
 -0.29293  0.10000000E+01  0.25995868E+02  0.25985335E+02
 -0.27273  0.10000000E+01  0.25951058E+02  0.25947391E+02
 -0.25252  0.10000000E+01  0.25916916E+02  0.25920088E+02
 -0.23232  0.10000000E+01  0.25893350E+02  0.25903344E+02
 -0.21212  0.10000000E+01  0.25880306E+02  0.25897113E+02
 -0.19192  0.10000000E+01  0.25877769E+02  0.25901388E+02
 -0.17172  0.10000000E+01  0.25885762E+02  0.25916201E+02
 -0.15151  0.10000000E+01  0.25904348E+02  0.25941621E+02
 -0.13131  0.10000000E+01  0.25933627E+02  0.25977759E+02
 -0.11111  0.10000000E+01  0.25973742E+02  0.26024766E+02
 -0.09091  0.10000000E+01  0.26024875E+02  0.26082833E+02
 -0.07071  0.10000000E+01  0.26087255E+02  0.26152199E+02
 -0.05050  0.10000000E+01  0.26161157E+02  0.26233147E+02
 -0.03030  0.10000000E+01  0.26246905E+02  0.26326011E+02
 -0.01010  0.10000000E+01  0.26344875E+02  0.26431180E+02
  0.01010  0.10000000E+01  0.26455505E+02  0.26549099E+02
  0.03030  0.10000000E+01  0.26579291E+02  0.26680281E+02
  0.05050  0.10000000E+01  0.26716803E+02  0.26825304E+02
  0.07071  0.10000000E+01  0.26868684E+02  0.26984827E+02
  0.09091  0.10000000E+01  0.27035666E+02  0.27159595E+02
  0.11111  0.10000000E+01  0.27218572E+02  0.27350449E+02
  0.13131  0.10000000E+01  0.27418338E+02  0.27558340E+02
  0.15151  0.10000000E+01  0.27636018E+02  0.27784342E+02
  0.17172  0.10000000E+01  0.27872806E+02  0.28029669E+02
  0.19192  0.10000000E+01  0.28130056E+02  0.28295699E+02
  0.21212  0.10000000E+01  0.28409305E+02  0.28583993E+02
  0.23232  0.10000000E+01  0.28712303E+02  0.28896330E+02
  0.25252  0.10000000E+01  0.29041052E+02  0.29234741E+02
  0.27273  0.99999999E+00  0.29397834E+02  0.29601550E+02
  0.29293  0.99999999E+00  0.29785292E+02  0.29999436E+02
  0.31313  0.99999999E+00  0.30206469E+02  0.30431489E+02
  0.33333  0.99999999E+00  0.30664905E+02  0.30901303E+02
  0.35353  0.99999999E+00  0.31164735E+02  0.31413076E+02
  0.37374  0.99999999E+00  0.31710822E+02  0.31971741E+02
  0.39394  0.99999998E+00  0.32308926E+02  0.32583143E+02
  0.41414  0.99999998E+00  0.32965923E+02  0.33254260E+02
  0.43434  0.99999998E+00  0.33690094E+02  0.33993491E+02
  0.45454  0.99999998E+00  0.34491512E+02  0.34811056E+02
  0.47475  0.99999997E+00  0.35382570E+02  0.35719525E+02
  0.49495  0.99999997E+00  0.36378703E+02  0.36734553E+02
  0.51515  0.99999996E+00  0.37499421E+02  0.37875926E+02
  0.53535  0.99999995E+00  0.38769787E+02  0.39169064E+02
  0.55555  0.99999995E+00  0.40222628E+02  0.40647255E+02
  0.57576  0.99999994E+00  0.41901906E+02  0.42355076E+02
  0.59596  0.99999993E+00  0.43868084E+02  0.44353835E+02
  0.61616  0.99999992E+00  0.46207017E+02  0.46730582E+02
  0.63636  0.99999990E+00  0.49045508E+02  0.49613876E+02
  0.65656  0.99999988E+00  0.52580339E+02  0.53203215E+02
  0.67677  0.99999986E+00  0.57137174E+02  0.57828741E+02
  0.69697  0.99999982E+00  0.63304102E+02  0.64086602E+02
  0.71717  0.99999977E+00  0.72285436E+02  0.73197545E+02
  0.73737  0.99999969E+00  0.87092743E+02  0.88214081E+02
  0.75757  0.99999953E+00  0.11875977E+03  0.12031934E+03
  0.77778  0.99999988E+00  0.34138992E+03  0.34596076E+03
  0.79798  0.51835078E-07  0.32054225E-01  0.32473039E-01
  0.81818  0.66570780E-08  0.81643627E-02  0.82678643E-02
  0.83838  0.19121450E-08  0.36806632E-02  0.37259869E-02
  0.85858  0.75837113E-09  0.20781291E-02  0.21030119E-02
  0.87879  0.35942230E-09  0.13262474E-02  0.13417034E-02
  0.89899  0.19096880E-09  0.91468101E-03  0.92506539E-03
  0.91919  0.10993396E-09  0.66566353E-03  0.67303191E-03
  0.93939  0.67175485E-10  0.50396977E-03  0.50941318E-03
  0.95959  0.42994223E-10  0.39330540E-03  0.39745369E-03
  0.97980  0.28558879E-10  0.31441308E-03  0.31765360E-03
  1.00000  0.19558342E-10  0.25630859E-03  0.25889167E-03
 Transport for spin ->  1  , kxy-point ->   1, of Node     2
           kxy=(-.379 0.657 0.000 ),w= 0.2222
    E           T(E)            TotDOS         PDOS
 -1.00000  0.13785623E-84  0.89810183E-23  0.89810183E-23
 -0.97980  0.15795805E-84  0.94667485E-23  0.94667485E-23
 -0.95959  0.18126971E-84  0.99849179E-23  0.99849179E-23
 -0.93939  0.20835027E-84  0.10538127E-22  0.10538127E-22
 -0.91919  0.23986458E-84  0.11129223E-22  0.11129223E-22
 -0.89899  0.27660497E-84  0.11761321E-22  0.11761321E-22
 -0.87879  0.31951772E-84  0.12437839E-22  0.12437839E-22
 -0.85858  0.36973548E-84  0.13162531E-22  0.13162531E-22
 -0.83838  0.42861704E-84  0.13939521E-22  0.13939521E-22
 -0.81818  0.49779627E-84  0.14773350E-22  0.14773350E-22
 -0.79798  0.57924249E-84  0.15669022E-22  0.15669022E-22
 -0.77778  0.67533523E-84  0.16632059E-22  0.16632059E-22
 -0.75757  0.78895691E-84  0.17668562E-22  0.17668562E-22
 -0.73737  0.92360820E-84  0.18785284E-22  0.18785284E-22
 -0.71717  0.10835520E-83  0.19989708E-22  0.19989708E-22
 -0.69697  0.12739939E-83  0.21290137E-22  0.21290137E-22
 -0.67677  0.15013084E-83  0.22695804E-22  0.22695804E-22
 -0.65656  0.17733242E-83  0.24216985E-22  0.24216985E-22
 -0.63636  0.20996854E-83  0.25865140E-22  0.25865140E-22
 -0.61616  0.24923092E-83  0.27653068E-22  0.27653068E-22
 -0.59596  0.29659687E-83  0.29595091E-22  0.29595091E-22
 -0.57576  0.35390382E-83  0.31707264E-22  0.31707264E-22
 -0.55555  0.42344497E-83  0.34007613E-22  0.34007613E-22
 -0.53535  0.50809238E-83  0.36516422E-22  0.36516422E-22
 -0.51515  0.61145638E-83  0.39256558E-22  0.39256558E-22
 -0.49495  0.73809242E-83  0.42253849E-22  0.42253849E-22
 -0.47475  0.89377107E-83  0.45537536E-22  0.45537536E-22
 -0.45454  0.10858318E-82  0.49140792E-22  0.49140792E-22
 -0.43434  0.13236491E-82  0.53101336E-22  0.53101336E-22
 -0.41414  0.16192482E-82  0.57462159E-22  0.57462159E-22
 -0.39394  0.19881259E-82  0.62272378E-22  0.62272378E-22
 -0.37374  0.24503453E-82  0.67588251E-22  0.67588251E-22
 -0.35353  0.30320095E-82  0.73474388E-22  0.73474388E-22
 -0.33333  0.37672527E-82  0.80005192E-22  0.80005192E-22
 -0.31313  0.47009469E-82  0.87266587E-22  0.87266587E-22
 -0.29293  0.58924066E-82  0.95358096E-22  0.95358096E-22
 -0.27273  0.74204883E-82  0.10439535E-21  0.10439535E-21
 -0.25252  0.93906589E-82  0.11451315E-21  0.11451315E-21
 -0.23232  0.11944862E-81  0.12586911E-21  0.12586911E-21
 -0.21212  0.15275386E-81  0.13864826E-21  0.13864826E-21
 -0.19192  0.19644518E-81  0.15306856E-21  0.15306856E-21
 -0.17172  0.25412594E-81  0.16938774E-21  0.16938774E-21
 -0.15151  0.33078402E-81  0.18791185E-21  0.18791185E-21
 -0.13131  0.43337858E-81  0.20900580E-21  0.20900580E-21
 -0.11111  0.57170024E-81  0.23310670E-21  0.23310670E-21
 -0.09091  0.75964428E-81  0.26074057E-21  0.26074057E-21
 -0.07071  0.10171144E-80  0.29254356E-21  0.29254356E-21
 -0.05050  0.13729000E-80  0.32928910E-21  0.32928910E-21
 -0.03030  0.18690747E-80  0.37192267E-21  0.37192267E-21
 -0.01010  0.25678011E-80  0.42160696E-21  0.42160696E-21
  0.01010  0.35619924E-80  0.47978060E-21  0.47978060E-21
  0.03030  0.49922449E-80  0.54823549E-21  0.54823549E-21
  0.05050  0.70741173E-80  0.62921930E-21  0.62921930E-21
  0.07071  0.10142755E-79  0.72557262E-21  0.72557262E-21
  0.09091  0.14727091E-79  0.84091426E-21  0.84091426E-21
  0.11111  0.21675401E-79  0.97989431E-21  0.97989431E-21
  0.13131  0.32371760E-79  0.11485434E-20  0.11485434E-20
  0.15151  0.49116843E-79  0.13547608E-20  0.13547608E-20
  0.17172  0.75812517E-79  0.16090051E-20  0.16090051E-20
  0.19192  0.11922194E-78  0.19252858E-20  0.19252858E-20
  0.21212  0.19134892E-78  0.23226078E-20  0.23226078E-20
  0.23232  0.31405748E-78  0.28271117E-20  0.28271117E-20
  0.25252  0.52831818E-78  0.34753012E-20  0.34753012E-20
  0.27273  0.91334445E-78  0.43190091E-20  0.43190091E-20
  0.29293  0.16276880E-77  0.54332032E-20  0.54332032E-20
  0.31313  0.30011851E-77  0.69285597E-20  0.69285597E-20
  0.33333  0.57503151E-77  0.89722649E-20  0.89722649E-20
  0.35353  0.11509276E-76  0.11823484E-19  0.11823484E-19
  0.37374  0.24218322E-76  0.15895935E-19  0.15895935E-19
  0.39394  0.54003650E-76  0.21872645E-19  0.21872645E-19
  0.41414  0.12888938E-75  0.30926022E-19  0.30926022E-19
  0.43434  0.33348903E-75  0.45162368E-19  0.45162368E-19
  0.45454  0.95127130E-75  0.68576401E-19  0.68576401E-19
  0.47475  0.30599278E-74  0.10925683E-18  0.10925683E-18
  0.49495  0.11455116E-73  0.18496011E-18  0.18496011E-18
  0.51515  0.52249927E-73  0.33886803E-18  0.33886803E-18
  0.53535  0.31156740E-72  0.69109989E-18  0.69109989E-18
  0.55555  0.27286863E-71  0.16437442E-17  0.16437442E-17
  0.57576  0.43470043E-70  0.49668193E-17  0.49668193E-17
  0.59596  0.20040226E-68  0.22958941E-16  0.22958941E-16
  0.61616  0.10587391E-65  0.28160021E-15  0.28160021E-15
  0.63636  0.77063266E-57  0.99282527E-12  0.99282527E-12
  0.65656  0.22030920E-64  0.94289257E-15  0.94289257E-15
  0.67677  0.93627726E-68  0.42214678E-16  0.42214678E-16
  0.69697  0.12580929E-69  0.75197292E-17  0.75197292E-17
  0.71717  0.62863472E-71  0.22648541E-17  0.22648541E-17
  0.73737  0.63147225E-72  0.90191834E-18  0.90191834E-18
  0.75757  0.97934925E-73  0.42730335E-18  0.42730335E-18
  0.77778  0.20430977E-73  0.22793346E-18  0.22793346E-18
  0.79798  0.52866244E-74  0.13252337E-18  0.13252337E-18
  0.81818  0.16110470E-74  0.82260570E-19  0.82260570E-19
  0.83838  0.55825509E-75  0.53753676E-19  0.53753676E-19
  0.85858  0.21455639E-75  0.36611549E-19  0.36611549E-19
  0.87879  0.89802823E-76  0.25801443E-19  0.25801443E-19
  0.89899  0.40370897E-76  0.18710357E-19  0.18710357E-19
  0.91919  0.19285023E-76  0.13901763E-19  0.13901763E-19
  0.93939  0.97065307E-77  0.10547147E-19  0.10547147E-19
  0.95959  0.51125703E-77  0.81487924E-20  0.81487924E-20
  0.97980  0.28023944E-77  0.63970240E-20  0.63970240E-20
  1.00000  0.15912396E-77  0.50931904E-20  0.50931904E-20
 Transport for spin ->  1  , kxy-point ->   2, of Node     2
           kxy=(0.000 0.438 0.000 ),w= 0.2222
    E           T(E)            TotDOS         PDOS
 -1.00000  0.99999999E+00  0.41744768E+02  0.40739129E+02
 -0.97980  0.99999999E+00  0.40206499E+02  0.39264681E+02
 -0.95959  0.99999999E+00  0.38857920E+02  0.37973544E+02
 -0.93939  0.99999999E+00  0.37665123E+02  0.36832940E+02
 -0.91919  0.99999999E+00  0.36602170E+02  0.35817797E+02
 -0.89899  0.99999999E+00  0.35648835E+02  0.34908572E+02
 -0.87879  0.99999999E+00  0.34789092E+02  0.34089779E+02
 -0.85858  0.99999999E+00  0.34010058E+02  0.33348972E+02
 -0.83838  0.10000000E+01  0.33301246E+02  0.32676023E+02
 -0.81818  0.10000000E+01  0.32654024E+02  0.32062597E+02
 -0.79798  0.10000000E+01  0.32061219E+02  0.31501769E+02
 -0.77778  0.10000000E+01  0.31516812E+02  0.30987730E+02
 -0.75757  0.10000000E+01  0.31015721E+02  0.30515575E+02
 -0.73737  0.10000000E+01  0.30553610E+02  0.30081127E+02
 -0.71717  0.10000000E+01  0.30126778E+02  0.29680811E+02
 -0.69697  0.10000000E+01  0.29732025E+02  0.29311546E+02
 -0.67677  0.10000000E+01  0.29366584E+02  0.28970666E+02
 -0.65656  0.10000000E+01  0.29028048E+02  0.28655851E+02
 -0.63636  0.99999999E+00  0.28714310E+02  0.28365078E+02
 -0.61616  0.99999999E+00  0.28423527E+02  0.28096570E+02
 -0.59596  0.99999999E+00  0.28154076E+02  0.27848770E+02
 -0.57576  0.99999999E+00  0.27904524E+02  0.27620302E+02
 -0.55555  0.99999999E+00  0.27673608E+02  0.27409952E+02
 -0.53535  0.99999999E+00  0.27460205E+02  0.27216647E+02
 -0.51515  0.99999999E+00  0.27263324E+02  0.27039438E+02
 -0.49495  0.99999999E+00  0.27082083E+02  0.26877482E+02
 -0.47475  0.99999999E+00  0.26915701E+02  0.26730035E+02
 -0.45454  0.99999999E+00  0.26763485E+02  0.26596437E+02
 -0.43434  0.99999999E+00  0.26624823E+02  0.26476108E+02
 -0.41414  0.99999999E+00  0.26499173E+02  0.26368537E+02
 -0.39394  0.99999999E+00  0.26386061E+02  0.26273275E+02
 -0.37374  0.99999999E+00  0.26285071E+02  0.26189933E+02
 -0.35353  0.99999999E+00  0.26195842E+02  0.26118177E+02
 -0.33333  0.10000000E+01  0.26118066E+02  0.26057720E+02
 -0.31313  0.10000000E+01  0.26051480E+02  0.26008325E+02
 -0.29293  0.10000000E+01  0.25995868E+02  0.25969797E+02
 -0.27273  0.10000000E+01  0.25951058E+02  0.25941984E+02
 -0.25252  0.10000000E+01  0.25916916E+02  0.25924775E+02
 -0.23232  0.10000000E+01  0.25893350E+02  0.25918099E+02
 -0.21212  0.10000000E+01  0.25880306E+02  0.25921922E+02
 -0.19192  0.10000000E+01  0.25877769E+02  0.25936250E+02
 -0.17172  0.10000000E+01  0.25885762E+02  0.25961127E+02
 -0.15151  0.10000000E+01  0.25904348E+02  0.25996635E+02
 -0.13131  0.10000000E+01  0.25933627E+02  0.26042897E+02
 -0.11111  0.10000000E+01  0.25973742E+02  0.26100076E+02
 -0.09091  0.10000000E+01  0.26024875E+02  0.26168379E+02
 -0.07071  0.10000000E+01  0.26087255E+02  0.26248055E+02
 -0.05050  0.10000000E+01  0.26161157E+02  0.26339403E+02
 -0.03030  0.10000000E+01  0.26246905E+02  0.26442773E+02
 -0.01010  0.10000000E+01  0.26344875E+02  0.26558567E+02
  0.01010  0.10000000E+01  0.26455505E+02  0.26687250E+02
  0.03030  0.10000000E+01  0.26579291E+02  0.26829347E+02
  0.05050  0.10000000E+01  0.26716803E+02  0.26985460E+02
  0.07071  0.10000000E+01  0.26868684E+02  0.27156265E+02
  0.09091  0.10000000E+01  0.27035666E+02  0.27342530E+02
  0.11111  0.10000000E+01  0.27218572E+02  0.27545118E+02
  0.13131  0.10000000E+01  0.27418338E+02  0.27765005E+02
  0.15151  0.10000000E+01  0.27636018E+02  0.28003294E+02
  0.17172  0.10000000E+01  0.27872806E+02  0.28261230E+02
  0.19192  0.10000000E+01  0.28130056E+02  0.28540223E+02
  0.21212  0.10000000E+01  0.28409305E+02  0.28841873E+02
  0.23232  0.10000000E+01  0.28712303E+02  0.29168000E+02
  0.25252  0.10000000E+01  0.29041052E+02  0.29520682E+02
  0.27273  0.99999999E+00  0.29397834E+02  0.29902297E+02
  0.29293  0.99999999E+00  0.29785292E+02  0.30315582E+02
  0.31313  0.99999999E+00  0.30206469E+02  0.30763697E+02
  0.33333  0.99999999E+00  0.30664905E+02  0.31250316E+02
  0.35353  0.99999999E+00  0.31164735E+02  0.31779725E+02
  0.37374  0.99999999E+00  0.31710822E+02  0.32356966E+02
  0.39394  0.99999998E+00  0.32308926E+02  0.32988010E+02
  0.41414  0.99999998E+00  0.32965923E+02  0.33679979E+02
  0.43434  0.99999998E+00  0.33690094E+02  0.34441454E+02
  0.45454  0.99999998E+00  0.34491512E+02  0.35282868E+02
  0.47475  0.99999997E+00  0.35382570E+02  0.36217052E+02
  0.49495  0.99999997E+00  0.36378703E+02  0.37259989E+02
  0.51515  0.99999996E+00  0.37499421E+02  0.38431872E+02
  0.53535  0.99999995E+00  0.38769787E+02  0.39758644E+02
  0.55555  0.99999995E+00  0.40222628E+02  0.41274277E+02
  0.57576  0.99999994E+00  0.41901906E+02  0.43024259E+02
  0.59596  0.99999993E+00  0.43868084E+02  0.45071142E+02
  0.61616  0.99999992E+00  0.46207017E+02  0.47503741E+02
  0.63636  0.99999990E+00  0.49045508E+02  0.50453211E+02
  0.65656  0.99999988E+00  0.52580339E+02  0.54123061E+02
  0.67677  0.99999986E+00  0.57137174E+02  0.58850048E+02
  0.69697  0.99999982E+00  0.63304102E+02  0.65242218E+02
  0.71717  0.99999977E+00  0.72285436E+02  0.74544597E+02
  0.73737  0.99999969E+00  0.87092743E+02  0.89870165E+02
  0.75757  0.99999953E+00  0.11875977E+03  0.12262269E+03
  0.77778  0.99999988E+00  0.34138993E+03  0.35271160E+03
  0.79798  0.51835078E-07  0.32054225E-01  0.33091610E-01
  0.81818  0.66570780E-08  0.81643626E-02  0.84207333E-02
  0.83838  0.19121450E-08  0.36806632E-02  0.37929295E-02
  0.85858  0.75837113E-09  0.20781291E-02  0.21397638E-02
  0.87879  0.35942230E-09  0.13262474E-02  0.13645322E-02
  0.89899  0.19096880E-09  0.91468101E-03  0.94040353E-03
  0.91919  0.10993396E-09  0.66566353E-03  0.68391541E-03
  0.93939  0.67175485E-10  0.50396977E-03  0.51745350E-03
  0.95959  0.42994223E-10  0.39330540E-03  0.40358108E-03
  0.97980  0.28558879E-10  0.31441308E-03  0.32244019E-03
  1.00000  0.19558342E-10  0.25630859E-03  0.26270721E-03
 Transport for spin ->  1  , kxy-point ->   1, of Node     3
           kxy=(0.379 0.219 0.000 ),w= 0.2222
    E           T(E)            TotDOS         PDOS
 -1.00000  0.99999999E+00  0.41744768E+02  0.40739091E+02
 -0.97980  0.99999999E+00  0.40206499E+02  0.39264636E+02
 -0.95959  0.99999999E+00  0.38857920E+02  0.37973493E+02
 -0.93939  0.99999999E+00  0.37665123E+02  0.36832884E+02
 -0.91919  0.99999999E+00  0.36602170E+02  0.35817738E+02
 -0.89899  0.99999999E+00  0.35648835E+02  0.34908509E+02
 -0.87879  0.99999999E+00  0.34789092E+02  0.34089713E+02
 -0.85858  0.99999999E+00  0.34010058E+02  0.33348905E+02
 -0.83838  0.10000000E+01  0.33301246E+02  0.32675954E+02
 -0.81818  0.10000000E+01  0.32654024E+02  0.32062528E+02
 -0.79798  0.10000000E+01  0.32061219E+02  0.31501698E+02
 -0.77778  0.10000000E+01  0.31516812E+02  0.30987660E+02
 -0.75757  0.10000000E+01  0.31015721E+02  0.30515504E+02
 -0.73737  0.10000000E+01  0.30553610E+02  0.30081058E+02
 -0.71717  0.10000000E+01  0.30126778E+02  0.29680742E+02
 -0.69697  0.10000000E+01  0.29732025E+02  0.29311478E+02
 -0.67677  0.10000000E+01  0.29366584E+02  0.28970599E+02
 -0.65656  0.10000000E+01  0.29028048E+02  0.28655786E+02
 -0.63636  0.99999999E+00  0.28714310E+02  0.28365014E+02
 -0.61616  0.99999999E+00  0.28423527E+02  0.28096509E+02
 -0.59596  0.99999999E+00  0.28154076E+02  0.27848710E+02
 -0.57576  0.99999999E+00  0.27904524E+02  0.27620244E+02
 -0.55555  0.99999999E+00  0.27673608E+02  0.27409897E+02
 -0.53535  0.99999999E+00  0.27460205E+02  0.27216595E+02
 -0.51515  0.99999999E+00  0.27263324E+02  0.27039388E+02
 -0.49495  0.99999999E+00  0.27082083E+02  0.26877435E+02
 -0.47475  0.99999999E+00  0.26915701E+02  0.26729991E+02
 -0.45454  0.99999999E+00  0.26763485E+02  0.26596396E+02
 -0.43434  0.99999999E+00  0.26624823E+02  0.26476070E+02
 -0.41414  0.99999999E+00  0.26499173E+02  0.26368502E+02
 -0.39394  0.99999999E+00  0.26386061E+02  0.26273243E+02
 -0.37374  0.99999999E+00  0.26285071E+02  0.26189905E+02
 -0.35353  0.99999999E+00  0.26195842E+02  0.26118151E+02
 -0.33333  0.10000000E+01  0.26118066E+02  0.26057698E+02
 -0.31313  0.10000000E+01  0.26051480E+02  0.26008306E+02
 -0.29293  0.10000000E+01  0.25995868E+02  0.25969781E+02
 -0.27273  0.10000000E+01  0.25951058E+02  0.25941972E+02
 -0.25252  0.10000000E+01  0.25916916E+02  0.25924766E+02
 -0.23232  0.10000000E+01  0.25893350E+02  0.25918093E+02
 -0.21212  0.10000000E+01  0.25880306E+02  0.25921920E+02
 -0.19192  0.10000000E+01  0.25877769E+02  0.25936251E+02
 -0.17172  0.10000000E+01  0.25885762E+02  0.25961131E+02
 -0.15151  0.10000000E+01  0.25904348E+02  0.25996643E+02
 -0.13131  0.10000000E+01  0.25933627E+02  0.26042908E+02
 -0.11111  0.10000000E+01  0.25973742E+02  0.26100090E+02
 -0.09091  0.10000000E+01  0.26024875E+02  0.26168396E+02
 -0.07071  0.10000000E+01  0.26087255E+02  0.26248075E+02
 -0.05050  0.10000000E+01  0.26161157E+02  0.26339426E+02
 -0.03030  0.10000000E+01  0.26246905E+02  0.26442799E+02
 -0.01010  0.10000000E+01  0.26344875E+02  0.26558596E+02
  0.01010  0.10000000E+01  0.26455505E+02  0.26687281E+02
  0.03030  0.10000000E+01  0.26579291E+02  0.26829381E+02
  0.05050  0.10000000E+01  0.26716803E+02  0.26985496E+02
  0.07071  0.10000000E+01  0.26868684E+02  0.27156304E+02
  0.09091  0.10000000E+01  0.27035666E+02  0.27342571E+02
  0.11111  0.10000000E+01  0.27218572E+02  0.27545161E+02
  0.13131  0.10000000E+01  0.27418338E+02  0.27765050E+02
  0.15151  0.10000000E+01  0.27636018E+02  0.28003341E+02
  0.17172  0.10000000E+01  0.27872806E+02  0.28261279E+02
  0.19192  0.10000000E+01  0.28130056E+02  0.28540274E+02
  0.21212  0.10000000E+01  0.28409305E+02  0.28841925E+02
  0.23232  0.10000000E+01  0.28712303E+02  0.29168053E+02
  0.25252  0.10000000E+01  0.29041052E+02  0.29520734E+02
  0.27273  0.99999999E+00  0.29397834E+02  0.29902351E+02
  0.29293  0.99999999E+00  0.29785292E+02  0.30315637E+02
  0.31313  0.99999999E+00  0.30206469E+02  0.30763753E+02
  0.33333  0.99999999E+00  0.30664905E+02  0.31250371E+02
  0.35353  0.99999999E+00  0.31164735E+02  0.31779780E+02
  0.37374  0.99999999E+00  0.31710822E+02  0.32357021E+02
  0.39394  0.99999998E+00  0.32308926E+02  0.32988063E+02
  0.41414  0.99999998E+00  0.32965923E+02  0.33680032E+02
  0.43434  0.99999998E+00  0.33690094E+02  0.34441505E+02
  0.45454  0.99999998E+00  0.34491512E+02  0.35282917E+02
  0.47475  0.99999997E+00  0.35382570E+02  0.36217098E+02
  0.49495  0.99999997E+00  0.36378703E+02  0.37260032E+02
  0.51515  0.99999996E+00  0.37499421E+02  0.38431911E+02
  0.53535  0.99999995E+00  0.38769787E+02  0.39758680E+02
  0.55555  0.99999995E+00  0.40222628E+02  0.41274307E+02
  0.57576  0.99999994E+00  0.41901906E+02  0.43024283E+02
  0.59596  0.99999993E+00  0.43868084E+02  0.45071159E+02
  0.61616  0.99999992E+00  0.46207017E+02  0.47503750E+02
  0.63636  0.99999990E+00  0.49045508E+02  0.50453209E+02
  0.65656  0.99999988E+00  0.52580339E+02  0.54123047E+02
  0.67677  0.99999986E+00  0.57137174E+02  0.58850018E+02
  0.69697  0.99999982E+00  0.63304102E+02  0.65242169E+02
  0.71717  0.99999977E+00  0.72285436E+02  0.74544521E+02
  0.73737  0.99999969E+00  0.87092743E+02  0.89870048E+02
  0.75757  0.99999953E+00  0.11875977E+03  0.12262249E+03
  0.77778  0.99999988E+00  0.34138990E+03  0.35271089E+03
  0.79798  0.51835081E-07  0.32054226E-01  0.33091548E-01
  0.81818  0.66570782E-08  0.81643628E-02  0.84207178E-02
  0.83838  0.19121450E-08  0.36806632E-02  0.37929226E-02
  0.85858  0.75837114E-09  0.20781292E-02  0.21397600E-02
  0.87879  0.35942231E-09  0.13262474E-02  0.13645298E-02
  0.89899  0.19096880E-09  0.91468101E-03  0.94040195E-03
  0.91919  0.10993396E-09  0.66566354E-03  0.68391428E-03
  0.93939  0.67175485E-10  0.50396978E-03  0.51745266E-03
  0.95959  0.42994223E-10  0.39330540E-03  0.40358044E-03
  0.97980  0.28558879E-10  0.31441308E-03  0.32243969E-03
  1.00000  0.19558342E-10  0.25630859E-03  0.26270681E-03
 ==============================================================
 
 Results:
 
 Voltage, Current(A) =   0.00000000E+00  0.00000000E+00
 
 ==============================================================
