Siesta Version  : siesta-4.1-1033
Architecture    : x86_64-linux-n-62-18-18
Compiler version: GNU Fortran (GCC) 7.3.0
Compiler flags  : mpifort -m64 -fPIC -O3 -march=native -ftree-vectorize -fexpensive-optimizatioons -funroll-loops -fprefetch-loop-arrays -fno-second-underscore  -flto
PP flags        : -I/zdata/groups/common/nicpa/2018-feb/generic/build-tools/1.0/include -I/zdatta/groups/common/nicpa/2018-feb/generic/gcc/7.3.0/include -I/zdata/groups/common/nicpa/2018-feb/generic/gcc/7.3.0/include -I/zdata/groups/common/nicpa/2018-feb/XeonE5-2665/zlib/1.2.11/gnu-7.3.0/include -I/zdata/groups/common/nicpa/2018-feb/generic/numactl/2.0.11/include -I/zdata/groups/common/nicpa/2018-feb/XeonE5-2665/libxml2/2.9.7/gnu-7.3.0/include -I/zdata/groups/common/nicpa/2018-feb/XeonE5-2665/hwloc/1.11.9/gnu-7.3.0/include -I/zdata/groups/common/nicpa/2018-feb/XeonE5-2665/openmpi/3.0.0/gnu-7.3.0/include -I/zdata/groups/common/nicpa/2018-feb/XeonE5-2665/szip/2.1.1/gnu-7.3.0/include -I/zdata/groups/common/nicpa/2018-feb/XeonE5-2665/hdf5/1.8.18/gnu-7.3.0/include -I/zdata/groups/common/nicpa/2018-feb/XeonE5-2665/pnetcdf/1.8.1/gnu-7.3.0/include -I/zdata/groups/common/nicpa/2018-feb/XeonE5-2665/netcdf/4.6.0/gnu-7.3.0/include -I/zdata/groups/common/nicpa/2018-feb/XeonE5-2665/flook/0.7.0/gnu-7.3.0/include -I/zdata/groups/common/nicpa/2018-feb/XeonE5-2665/parmetis/4.0.3/gnu-7.3.0/include -I/zdata/groups/common/nicpa/2018-feb/XeonE5-2665/scalapack/204/gnu-7.3.0/include -I/zdata/groups/common/nicpa/2018-feb/XeonE5-2665/openblas/0.2.20/gnu-7.3.0/include -I/zdata/groups/common/nicpa/2018-feb/XeonE5-2665/scotch/6.0.4/gnu-7.3.0/include -I/zdata/groups/common/nicpa/2018-feb/XeonE5-2665/mumps/5.1.2/gnu-7.3.0/include -I/zdata/groups/common/nicpa/2018-feb/XeonE5-2665/fftw/3.3.7/gnu-7.3.0/include -I/zdata/groups/common/nicpa/2018-feb/XeonE5-2665/elpa/2017.05.003/gnu-7.3.0/include/elpa -DSIESTA__ELPA -DMPI -D1 -DFC_HAVE_ABORT -DCDF -DCDF4 -DSIESTA__FLOOK  -DNCDF -DNCDF_4 -DNCDF_PARALLEL -DSIESTA__METIS -DSIESTA__MUMPS -DTS_NOCHECKS -DSIESTA__MRRR
Libraries       : libncdf.a libfdict.a -lnetcdff -lnetcdf -lpnetcdf -lhdf5_hl -lhdf5 -lz  -lzmuumps -lmumps_common -lesmumps -lscotch -lscotcherr -lpord -lparmetis -lmetis -lelpa -lscalapack -lopenblas  -L/zdata/groups/common/nicpa/2018-feb/XeonE5-2665/flook/0.7.0/gnu-7.3.0/lib -Wl,-rpath=/zdata/groups/common/nicpa/2018-feb/XeonE5-2665/flook/0.7.0/gnu-7.3.0/lib -lflookall -ldl  -flto -fuse-linker-plugin  -lmetis
PARALLEL version
NetCDF support
NetCDF-4 support
NetCDF-4 MPI-IO support
METIS ordering support

* Running on 8 nodes in parallel
>> Start of run:   5-NOV-2018  12:17:10

                           ***********************       
                           *  WELCOME TO SIESTA  *       
                           ***********************       

reinit: Reading from au_100.fdf

reinit: -----------------------------------------------------------------------
reinit: System Name: Au 100 with gold chain
reinit: -----------------------------------------------------------------------
reinit: System Label: au_100
reinit: -----------------------------------------------------------------------

initatom: Reading input for the pseudopotentials and atomic orbitals ----------
Species number:   1 Atomic number:   79 Label: Au

Ground state valence configuration:   6s01  5d10
Reading pseudopotential information in formatted form from Au.psf

Pseudopotential generated from a relativistic atomic calculation

Valence configuration for pseudopotential generation:
6s( 1.00) rc: 2.29
6p( 0.00) rc: 3.14
5d(10.00) rc: 1.20
5f( 0.00) rc: 3.14
For Au, standard SIESTA heuristics set lmxkb to 3
 (one more than the basis l, including polarization orbitals).
Use PS.lmax or PS.KBprojectors blocks to override.

<basis_specs>
===============================================================================
Au                   Z=  79    Mass=  196.97        Charge= 0.17977+309
Lmxo=2 Lmxkb= 3    BasisType=split      Semic=F
L=0  Nsemic=0  Cnfigmx=6
          n=1  nzeta=1  polorb=1
            splnorm:   0.15000    
               vcte:    0.0000    
               rinn:    0.0000    
               qcoe:    0.0000    
               qyuk:    0.0000    
               qwid:   0.10000E-01
                rcs:    0.0000    
            lambdas:    1.0000    
L=1  Nsemic=0  Cnfigmx=6
L=2  Nsemic=0  Cnfigmx=5
          n=1  nzeta=1  polorb=0
            splnorm:   0.15000    
               vcte:    0.0000    
               rinn:    0.0000    
               qcoe:    0.0000    
               qyuk:    0.0000    
               qwid:   0.10000E-01
                rcs:    0.0000    
            lambdas:    1.0000    
-------------------------------------------------------------------------------
L=0  Nkbl=1  erefs: 0.17977+309
L=1  Nkbl=1  erefs: 0.17977+309
L=2  Nkbl=1  erefs: 0.17977+309
L=3  Nkbl=1  erefs: 0.17977+309
===============================================================================
</basis_specs>

atom: Called for Au                    (Z =  79)

read_vps: Pseudopotential generation method:
read_vps: ATM3      Troullier-Martins                       
Total valence charge:   11.00000

read_vps: Pseudopotential includes a core correction:
read_vps: Pseudo-core for xc-correction

xc_check: Exchange-correlation functional:
xc_check: GGA Perdew, Burke & Ernzerhof 1996
V l=0 = -2*Zval/r beyond r=  2.9833
V l=1 = -2*Zval/r beyond r=  3.1363
V l=2 = -2*Zval/r beyond r=  2.9833
V l=3 = -2*Zval/r beyond r=  3.1363
All V_l potentials equal beyond r=  3.0973
This should be close to max(r_c) in ps generation
All pots = -2*Zval/r beyond r=  3.1363

VLOCAL1: 99.0% of the norm of Vloc inside      4.525 Ry
VLOCAL1: 99.9% of the norm of Vloc inside     10.312 Ry
atom: Maximum radius for 4*pi*r*r*local-pseudopot. charge    3.73611
atom: Maximum radius for r*vlocal+2*Zval:    3.29710
GHOST: No ghost state for L =  0
GHOST: No ghost state for L =  1
GHOST: No ghost state for L =  2
GHOST: No ghost state for L =  3

KBgen: Kleinman-Bylander projectors: 
   l= 0   rc=  3.423088   el= -0.421435   Ekb=  5.114239   kbcos=  0.182513
   l= 1   rc=  3.553892   el= -0.058080   Ekb=  1.612319   kbcos=  0.221966
   l= 2   rc=  3.256140   el= -0.508574   Ekb= -6.472599   kbcos= -0.707183
   l= 3   rc=  3.643860   el=  0.003083   Ekb= -1.026026   kbcos= -0.026089

KBgen: Total number of  Kleinman-Bylander projectors:   16
atom: -------------------------------------------------------------------------

atom: SANKEY-TYPE ORBITALS:

SPLIT: Orbitals with angular momentum L= 0

SPLIT: Basis orbitals for state 6s

SPLIT: PAO cut-off radius determined from an
SPLIT: energy shift=  0.005000 Ry

   izeta = 1
                 lambda =    1.000000
                     rc =    7.246712
                 energy =   -0.416422
                kinetic =    0.363232
    potential(screened) =   -0.779654
       potential(ionic) =   -8.332754

SPLIT: Orbitals with angular momentum L= 2

SPLIT: Basis orbitals for state 5d

SPLIT: PAO cut-off radius determined from an
SPLIT: energy shift=  0.005000 Ry

   izeta = 1
                 lambda =    1.000000
                     rc =    5.106662
                 energy =   -0.503595
                kinetic =    4.974612
    potential(screened) =   -5.478207
       potential(ionic) =  -15.919605

POLgen: Perturbative polarization orbital with L=  1

POLgen: Polarization orbital for state 6s

   izeta = 1
                     rc =    7.246712
                 energy =   -0.086468
                kinetic =    0.638528
    potential(screened) =   -0.724996
       potential(ionic) =   -7.799440
atom: Total number of Sankey-type orbitals:  9

atm_pop: Valence configuration (for local Pseudopot. screening):
 6s( 1.00)                                                            
 6p( 0.00)                                                            
 5d(10.00)                                                            
Vna: chval, zval:   11.00000  11.00000

Vna:  Cut-off radius for the neutral-atom potential:   7.246712
comcore: Pseudo-core radius Rcore=  4.027091

atom: _________________________________________________________________________

prinput: Basis input ----------------------------------------------------------

PAO.BasisType split     

%block ChemicalSpeciesLabel
    1   79 Au                      # Species index, atomic number, species label
%endblock ChemicalSpeciesLabel

%block PAO.Basis                 # Define Basis set
Au                    2                    # Species label, number of l-shells
 n=6   0   1 P   1                   # n, l, Nzeta, Polarization, NzetaPol
   7.247   
   1.000   
 n=5   2   1                         # n, l, Nzeta 
   5.107   
   1.000   
%endblock PAO.Basis

prinput: ----------------------------------------------------------------------

Dumping basis to NetCDF file Au.ion.nc
coor:   Atomic-coordinates input format  =     Cartesian coordinates
coor:                                          (in Angstroms)

siesta: WARNING: XV file not found

siesta: Atomic coordinates (Bohr) and species
siesta:      0.00000   0.00000   0.00000  1        1
siesta:      5.44944   0.00000   0.00000  1        2
siesta:     10.89889   0.00000   0.00000  1        3
siesta:      0.00000   5.44944   0.00000  1        4
siesta:      5.44944   5.44944   0.00000  1        5
siesta:     10.89889   5.44944   0.00000  1        6
siesta:      0.00000  10.89889   0.00000  1        7
siesta:      5.44944  10.89889   0.00000  1        8
siesta:     10.89889  10.89889   0.00000  1        9
siesta:      2.72472   2.72472   3.85334  1       10
siesta:      8.17416   2.72472   3.85334  1       11
siesta:     13.62361   2.72472   3.85334  1       12
siesta:      2.72472   8.17416   3.85334  1       13
siesta:      8.17416   8.17416   3.85334  1       14
siesta:     13.62361   8.17416   3.85334  1       15
siesta:      2.72472  13.62361   3.85334  1       16
siesta:      8.17416  13.62361   3.85334  1       17
siesta:     13.62361  13.62361   3.85334  1       18
siesta:      0.00000   0.00000   7.70668  1       19
siesta:      5.44944   0.00000   7.70668  1       20
siesta:     10.89889   0.00000   7.70668  1       21
siesta:      0.00000   5.44944   7.70668  1       22
siesta:      5.44944   5.44944   7.70668  1       23
siesta:     10.89889   5.44944   7.70668  1       24
siesta:      0.00000  10.89889   7.70668  1       25
siesta:      5.44944  10.89889   7.70668  1       26
siesta:     10.89889  10.89889   7.70668  1       27
siesta:      2.72472   2.72472  11.56003  1       28
siesta:      8.17416   2.72472  11.56003  1       29
siesta:     13.62361   2.72472  11.56003  1       30
siesta:      2.72472   8.17416  11.56003  1       31
siesta:      8.17416   8.17416  11.56003  1       32
siesta:     13.62361   8.17416  11.56003  1       33
siesta:      2.72472  13.62361  11.56003  1       34
siesta:      8.17416  13.62361  11.56003  1       35
siesta:     13.62361  13.62361  11.56003  1       36
siesta:      0.00000   0.00000  15.41337  1       37
siesta:      5.44944   0.00000  15.41337  1       38
siesta:     10.89889   0.00000  15.41337  1       39
siesta:      0.00000   5.44944  15.41337  1       40
siesta:      5.44944   5.44944  15.41337  1       41
siesta:     10.89889   5.44944  15.41337  1       42
siesta:      0.00000  10.89889  15.41337  1       43
siesta:      5.44944  10.89889  15.41337  1       44
siesta:     10.89889  10.89889  15.41337  1       45
siesta:      2.72472   2.72472  19.26671  1       46
siesta:      8.17416   2.72472  19.26671  1       47
siesta:     13.62361   2.72472  19.26671  1       48
siesta:      2.72472   8.17416  19.26671  1       49
siesta:      8.17416   8.17416  19.26671  1       50
siesta:     13.62361   8.17416  19.26671  1       51
siesta:      2.72472  13.62361  19.26671  1       52
siesta:      8.17416  13.62361  19.26671  1       53
siesta:     13.62361  13.62361  19.26671  1       54
siesta:      0.00000   0.00000  23.12005  1       55
siesta:      2.72472   2.72472  26.97339  1       56
siesta:      0.00000   0.00000  30.82674  1       57
siesta:      2.72472   2.72472  34.68008  1       58
siesta:      0.00000   0.00000  38.53342  1       59
siesta:      5.44944   0.00000  38.53342  1       60
siesta:     10.89889   0.00000  38.53342  1       61
siesta:      0.00000   5.44944  38.53342  1       62
siesta:      5.44944   5.44944  38.53342  1       63
siesta:     10.89889   5.44944  38.53342  1       64
siesta:      0.00000  10.89889  38.53342  1       65
siesta:      5.44944  10.89889  38.53342  1       66
siesta:     10.89889  10.89889  38.53342  1       67
siesta:      2.72472   2.72472  42.38676  1       68
siesta:      8.17416   2.72472  42.38676  1       69
siesta:     13.62361   2.72472  42.38676  1       70
siesta:      2.72472   8.17416  42.38676  1       71
siesta:      8.17416   8.17416  42.38676  1       72
siesta:     13.62361   8.17416  42.38676  1       73
siesta:      2.72472  13.62361  42.38676  1       74
siesta:      8.17416  13.62361  42.38676  1       75
siesta:     13.62361  13.62361  42.38676  1       76
siesta:      0.00000   0.00000  46.24010  1       77
siesta:      5.44944   0.00000  46.24010  1       78
siesta:     10.89889   0.00000  46.24010  1       79
siesta:      0.00000   5.44944  46.24010  1       80
siesta:      5.44944   5.44944  46.24010  1       81
siesta:     10.89889   5.44944  46.24010  1       82
siesta:      0.00000  10.89889  46.24010  1       83
siesta:      5.44944  10.89889  46.24010  1       84
siesta:     10.89889  10.89889  46.24010  1       85
siesta:      2.72472   2.72472  50.09345  1       86
siesta:      8.17416   2.72472  50.09345  1       87
siesta:     13.62361   2.72472  50.09345  1       88
siesta:      2.72472   8.17416  50.09345  1       89
siesta:      8.17416   8.17416  50.09345  1       90
siesta:     13.62361   8.17416  50.09345  1       91
siesta:      2.72472  13.62361  50.09345  1       92
siesta:      8.17416  13.62361  50.09345  1       93
siesta:     13.62361  13.62361  50.09345  1       94
siesta:      0.00000   0.00000  53.94679  1       95
siesta:      5.44944   0.00000  53.94679  1       96
siesta:     10.89889   0.00000  53.94679  1       97
siesta:      0.00000   5.44944  53.94679  1       98
siesta:      5.44944   5.44944  53.94679  1       99
siesta:     10.89889   5.44944  53.94679  1      100
siesta:      0.00000  10.89889  53.94679  1      101
siesta:      5.44944  10.89889  53.94679  1      102
siesta:     10.89889  10.89889  53.94679  1      103
siesta:      2.72472   2.72472  57.80013  1      104
siesta:      8.17416   2.72472  57.80013  1      105
siesta:     13.62361   2.72472  57.80013  1      106
siesta:      2.72472   8.17416  57.80013  1      107
siesta:      8.17416   8.17416  57.80013  1      108
siesta:     13.62361   8.17416  57.80013  1      109
siesta:      2.72472  13.62361  57.80013  1      110
siesta:      8.17416  13.62361  57.80013  1      111
siesta:     13.62361  13.62361  57.80013  1      112

siesta: System type = bulk      

initatomlists: Number of atoms, orbitals, and projectors:    112  1008  1792

coxmol: Writing XMOL coordinates into file au_100.xyz                                                          

siesta: ******************** Simulation parameters ****************************
siesta:
siesta: The following are some of the parameters of the simulation.
siesta: A complete list of the parameters used, including default values,
siesta: can be found in file out.fdf
siesta:
redata: Spin configuration                          = none
redata: Number of spin components                   = 1
redata: Time-Reversal Symmetry                      = T
redata: Spin-spiral                                 = F
redata: Long output                                 =   F
redata: Number of Atomic Species                    =        1
redata: Charge density info will appear in .RHO file
redata: Write Mulliken Pop.                         = Atomic and Orbital charges
redata: Matel table size (NRTAB)                    =     1024
redata: Mesh Cutoff                                 =   300.0000 Ry
redata: Net charge of the system                    =     0.0000 |e|
redata: Min. number of SCF Iter                     =        0
redata: Max. number of SCF Iter                     =      300
redata: SCF convergence failure will abort job
redata: SCF mix quantity                            = Hamiltonian
redata: Mix DM or H after convergence               =   F
redata: Recompute H after scf cycle                 =   F
redata: Mix DM in first SCF step                    =   T
redata: Write Pulay info on disk                    =   F
redata: New DM Mixing Weight                        =     0.0500
redata: New DM Occupancy tolerance                  = 0.000000000001
redata: No kicks to SCF
redata: DM Mixing Weight for Kicks                  =     0.5000
redata: Require Harris convergence for SCF          =   F
redata: Harris energy tolerance for SCF             =     0.000100 eV
redata: Require DM convergence for SCF              =   T
redata: DM tolerance for SCF                        =     0.000100
redata: Require EDM convergence for SCF             =   F
redata: EDM tolerance for SCF                       =     0.001000 eV
redata: Require H convergence for SCF               =   T
redata: Hamiltonian tolerance for SCF               =     0.001000 eV
redata: Require (free) Energy convergence for SCF   =   F
redata: (free) Energy tolerance for SCF             =     0.000100 eV
redata: Using Saved Data (generic)                  =   F
redata: Use continuation files for DM               =   T
redata: Neglect nonoverlap interactions             =   F
redata: Method of Calculation                       = Transiesta
redata: Fix the spin of the system                  =   F
redata: Dynamics option                             = Single-point calculation
mix.SCF: Pulay mixing                            = Pulay
mix.SCF:    Variant                              = stable
mix.SCF:    History steps                        = 5
mix.SCF:    Linear mixing weight                 =     0.050000
mix.SCF:    Mixing weight                        =     0.050000
mix.SCF:    SVD condition                        = 0.1000E-07
redata: Save all siesta data in one NC              =   F
redata: ***********************************************************************

%block SCF.Mixers
  Pulay
%endblock SCF.Mixers

%block SCF.Mixer.Pulay
  # Mixing method
  method pulay
  variant stable

  # Mixing options
  weight 0.0500
  weight.linear 0.0500
  history 5
%endblock SCF.Mixer.Pulay

DM_history_depth set to one: no extrapolation allowed by default for geometry relaxation
Size of DM history Fstack: 1
Total number of electrons:  1232.000000
Total ionic charge:  1232.000000

* ProcessorY, Blocksize:    2  24


* Orbital distribution balance (max,min):   144   120

k-point displ. along   1 input, could be:     0.00    0.50
k-point displ. along   2 input, could be:     0.00    0.50
k-point displ. along   3 input, could be:     0.00    0.50
 Kpoints in:            8 . Kpoints trimmed:            8

siesta: k-grid: Number of k-points =     8
siesta: k-grid: Cutoff (effective) =     8.651 Ang
siesta: k-grid: Supercell and displacements
siesta: k-grid:    2   0   0      0.000
siesta: k-grid:    0   2   0      0.000
siesta: k-grid:    0   0   2      0.000

diag: Algorithm                                     = D&C
diag: Parallel over k                               =   F
diag: Use parallel 2D distribution                  =   T
diag: Parallel block-size                           = 24
diag: Parallel distribution                         =     2 x     4
diag: Used triangular part                          = Lower
diag: Absolute tolerance                            =  0.100E-15
diag: Orthogonalization factor                      =  0.100E-05
diag: Memory factor                                 =  1.0000

superc: Internal auxiliary supercell:     3 x     3 x     3  =      27
superc: Number of atoms, orbitals, and projectors:   3024  27216  48384

k-point displ. along   1 input, could be:     0.00    0.50
k-point displ. along   2 input, could be:     0.00    0.50
 Kpoints in:            4 . Kpoints trimmed:            4

transiesta: k-grid: Number of Green function k-points =     4
transiesta: k-grid: Supercell and displacements
transiesta: k-grid:    2   0   0      0.000
transiesta: k-grid:    0   2   0      0.000
transiesta: k-grid:    0   0   1      0.000
Electrode: Left has very few k-points in the semi-infinite direction, at least 20 is recommended.
Electrode: Right has very few k-points in the semi-infinite direction, at least 20 is recommended.

ts: **************************************************************
ts: Voltage                                         =    0.2500 Volts
ts: Save H and S matrices                           =    T
ts: Electronic temperature                          =  299.986869 K
ts: Transport along unit-cell vector                =    A3
ts: Transport along Cartesian vector                =    Z
ts: Fixing Hartree potential at electrode-plane     =    Right
ts: Fix Hartree potential fraction                  =    1.0000
ts: Hartree potential offset                        =    0.000000 eV
ts: Solution method                                 =    BTD
ts: BTD pivoting method                             =    atom+Left
ts: BTD creation algorithm                          =    speed
ts: BTD spectral function algorithm                 =    propagation
ts: SCF.TS DM tolerance                             = 0.100E-03
ts: SCF.TS Hamiltonian tolerance                    =    0.001000 eV
ts: Initialize DM by                                =    diagon
ts: Initial DM for electrodes                       =    this
ts: Hartree potential as linear ramp
ts: Hartree potential ramp across central region
ts: Thermal non-equilibrium in distributions        =    F
ts: Non-equilibrium contour weight method           =    orb-orb
ts: Non-equilibrium contour weight k-method         =    Correlated k-points
ts: Will not correct charge fluctuations
ts: TS.SCF mixing options same as SCF
ts:           >> Electrodes << 
ts: >> Left
ts:   Electrode cell pivoting: E1, E2, E3           = A1, A2, A3
ts:   GF file                                       = au_100.TSGFLeft
ts:   Reuse existing GF-file                        =    F
ts:   Electrode TSHS file                           = ./elec_au_100.TSHS
ts:   # atoms used in electrode                     =   36
ts:   Electrode Bloch unity [E1 x E2 x E3]          = 1 x 1 x 1
ts:   Position in geometry                          = 1 -- 36
ts:   Semi-infinite direction for electrode         = negative wrt. E3
ts:   Chemical shift                                =    0.125000 eV
ts:   Electronic temperature                        =  299.986869 K
ts:   Gamma-only electrode                          =    F
ts:   Bulk H, S in electrode region                 =    T
ts:   Cross-terms are not updated
ts:   Hamiltonian E-C Ef fractional shift           =    0.0000
ts:   Electrode self-energy imaginary Eta           =  0.1000E-03  eV
ts:   Electrode self-energy accuracy                =  0.1000E-13  eV
ts:   Electrode inter-layer distance (semi-inf)     =    2.0391  Ang
ts: >> Right
ts:   Electrode cell pivoting: E1, E2, E3           = A1, A2, A3
ts:   GF file                                       = au_100.TSGFRight
ts:   Reuse existing GF-file                        =    F
ts:   Electrode TSHS file                           = ./elec_au_100.TSHS
ts:   # atoms used in electrode                     =   36
ts:   Electrode Bloch unity [E1 x E2 x E3]          = 1 x 1 x 1
ts:   Position in geometry                          = 77 -- 112
ts:   Semi-infinite direction for electrode         = positive wrt. E3
ts:   Chemical shift                                =   -0.125000 eV
ts:   Electronic temperature                        =  299.986869 K
ts:   Gamma-only electrode                          =    F
ts:   Bulk H, S in electrode region                 =    T
ts:   Cross-terms are not updated
ts:   Hamiltonian E-C Ef fractional shift           =    0.0000
ts:   Electrode self-energy imaginary Eta           =  0.1000E-03  eV
ts:   Electrode self-energy accuracy                =  0.1000E-13  eV
ts:   Electrode inter-layer distance (semi-inf)     =    2.0391  Ang
ts:  ----------------- Contour ----------------- 
ts:            >> Residual contour << 
ts: Pole chemical potential                         =    0.1250 eV
ts:    Chemical potential temperature               =  299.9869 K
ts:    Number of poles                              =   16
ts:    Top energy point                             =    2.5988 eV
ts: Pole chemical potential                         =   -0.1250 eV
ts:    Chemical potential temperature               =  299.9869 K
ts:    Number of poles                              =   16
ts:    Top energy point                             =    2.5988 eV
ts:          >> Equilibrium contour << 
ts: Contour name                                    =    TS.Contour.c-Left
ts:   circle contour E_min                          =  -39.8750 eV
ts:   circle contour E_max                          =   -0.1335 eV
ts:   circle contour points                         =   30
ts:   circle contour method                         =    Gauss-Legendre
ts: Contour name                                    =    TS.Contour.t-Left
ts:   tail contour E_min                            =   -0.1335 eV
ts:   tail contour E_max                            =     Infinity
ts:   tail contour points                           =   10
ts:   tail contour method                           =    Gauss-Fermi (0kT)
ts: Contour name                                    =    TS.Contour.c-Right
ts:   circle contour E_min                          =  -40.1250 eV
ts:   circle contour E_max                          =   -0.3835 eV
ts:   circle contour points                         =   30
ts:   circle contour method                         =    Gauss-Legendre
ts: Contour name                                    =    TS.Contour.t-Right
ts:   tail contour E_min                            =   -0.3835 eV
ts:   tail contour E_max                            =     Infinity
ts:   tail contour points                           =   10
ts:   tail contour method                           =    Gauss-Fermi (0kT)
ts:         >> non-Equilibrium contour << 
ts: Device Green function imaginary Eta             = 0.1000E-03 eV
ts: Fermi-function cut-off                          =  5.000     kT
ts: Contour name                                    =    TS.Contour.nEq.neq
ts:   line contour E_min                            =   -0.2543 eV
ts:   line contour E_max                            =    0.2543 eV
ts:   line contour points                           =   51
ts:   line contour method                           =    Mid-rule
ts: **************************************************************

************************ Begin: TS CHECKS AND WARNINGS ************************
Without loosing performance you can increase the non-equilibrium integration precision.
You can add 5 more energy points in the non-equilibrium contours, for FREE!
Electrode Left will not update cross-terms or local region.
Electrode Right will not update cross-terms or local region.
************************ End: TS CHECKS AND WARNINGS **************************

                  ****************************************
                   TRANSIESTA REPORTED IMPORTANT WARNINGS
                  ****************************************

>>> TranSiesta block information for FDF-file START <<<

%block TS.ChemPots
  Left
  Right
%endblock TS.ChemPots

%block TS.ChemPot.Left
  mu  V/2
  contour.eq
   begin
    c-Left
    t-Left
   end
%endblock TS.ChemPot.Left
%block TS.ChemPot.Right
  mu  - V/2
  contour.eq
   begin
    c-Right
    t-Right
   end
%endblock TS.ChemPot.Right
%block TS.Contour.c-Left
  part circle
     from -40.0000 eV + V/2 to -10. kT + V/2
      points 30
        method g-legendre
%endblock TS.Contour.c-Left
%block TS.Contour.t-Left
  part tail
     from prev to + inf
      points 10
        method g-fermi
%endblock TS.Contour.t-Left
%block TS.Contour.c-Right
  part circle
     from -40.00000 eV - V/2 to -10. kT - V/2
      points 30
        method g-legendre
%endblock TS.Contour.c-Right
%block TS.Contour.t-Right
  part tail
     from prev to + inf
      points 10
        method g-fermi
%endblock TS.Contour.t-Right
%block TS.Contours.nEq
    neq
%endblock TS.Contours.nEq

%block TS.Contour.nEq.neq
  part line
     from - |V|/2 - 5 kT to |V|/2 + 5 kT
      delta 0.01 eV
        method mid-rule
%endblock TS.Contour.nEq.neq

>>> TranSiesta block information for FDF-file END <<<


transiesta: Regions of atoms:
   ## (36): Elec.Left
     [ 1 -- 36 ]
   ## (36): Elec.Right
     [ 77 -- 112 ]
   -- (40): Device
     [ 37 -- 76 ]

  <sparsity:./elec_au_100.TSHS
    nrows_g=324 nrows=324 sparsity=4.3584 nnzs=457524, refcount: 3>
  <sparsity:(TM [--,--, 0] of: ./elec_au_100.TSHS)
    nrows_g=324 nrows=324 sparsity=2.6214 nnzs=275184, refcount: 3>
  <sparsity:(TM [--,--,-1] of: ./elec_au_100.TSHS)
    nrows_g=324 nrows=324 sparsity=.8685 nnzs=91170, refcount: 3>
 Left principal cell is perfect!

Calculating all surface Green functions for: Left
 Fermi level shift in electrode (chemical potential) :        0.12500  eV
 Atoms available    / used atoms   :     36 /     36
 Orbitals available / used orbitals:    324 /    324
 Total self-energy calculations: 652
 Saving surface Green functions in: au_100.TSGFLeft
 Estimated file size:   1057.192 MB
 Lopez Sancho, Lopez Sancho & Rubio recursive surface self-energy calculation...
 Lopez Sancho, Lopez Sancho & Rubio: Mean/std iterations:     9.0828 /     6.7271
 Lopez Sancho, Lopez Sancho & Rubio: Min/Max iterations :          3 /         19
Done creating 'au_100.TSGFLeft'.

  <sparsity:./elec_au_100.TSHS
    nrows_g=324 nrows=324 sparsity=4.3584 nnzs=457524, refcount: 3>
  <sparsity:(TM [--,--, 0] of: ./elec_au_100.TSHS)
    nrows_g=324 nrows=324 sparsity=2.6214 nnzs=275184, refcount: 3>
  <sparsity:(TM [--,--, 1] of: ./elec_au_100.TSHS)
    nrows_g=324 nrows=324 sparsity=.8685 nnzs=91170, refcount: 3>
 Right principal cell is perfect!

Calculating all surface Green functions for: Right
 Fermi level shift in electrode (chemical potential) :       -0.12500  eV
 Atoms available    / used atoms   :     36 /     36
 Orbitals available / used orbitals:    324 /    324
 Total self-energy calculations: 652
 Saving surface Green functions in: au_100.TSGFRight
 Estimated file size:   1057.192 MB
 Lopez Sancho, Lopez Sancho & Rubio recursive surface self-energy calculation...
 Lopez Sancho, Lopez Sancho & Rubio: Mean/std iterations:     9.1242 /     6.7289
 Lopez Sancho, Lopez Sancho & Rubio: Min/Max iterations :          3 /         19
Done creating 'au_100.TSGFRight'.


                     ====================================
                        Single-point calculation
                     ====================================

superc: Internal auxiliary supercell:     3 x     3 x     3  =      27
superc: Number of atoms, orbitals, and projectors:   3024  27216  48384

outcell: Unit cell vectors (Ang):
        8.651160    0.000000    0.000000
        0.000000    8.651160    0.000000
        0.000000    0.000000   32.625600

outcell: Cell vector modules (Ang)   :    8.651160    8.651160   32.625600
outcell: Cell angles (23,13,12) (deg):     90.0000     90.0000     90.0000
outcell: Cell volume (Ang**3)        :   2441.7837
<dSpData1D:S at geom step 0
  <sparsity:sparsity for geom step 0
    nrows_g=1008 nrows=144 sparsity=.1780 nnzs=180826, refcount: 7>
  <dData1D:(new from dSpData1D) n=180826, refcount: 1>
refcount: 1>
new_DM -- step:     1
Initializing Density Matrix...

Attempting to read DM, EDM from TSDE file... Failed...
Attempting to read DM from file... Failed...
DM filled with atomic data:
<dSpData2D:DM initialized from atoms
  <sparsity:sparsity for geom step 0
    nrows_g=1008 nrows=144 sparsity=.1780 nnzs=180826, refcount: 8>
  <dData2D:DM n=180826 m=1, refcount: 1>
refcount: 1>

transiesta: Initialization run using siesta

No. of atoms with KB's overlaping orbs in proc 0. Max # of overlaps:     341     267
New grid distribution:   1
           1       1:   48    1:   24    1:   45
           2       1:   48    1:   24   46:   90
           3       1:   48    1:   24   91:  135
           4       1:   48    1:   24  136:  180
           5       1:   48   25:   48    1:   45
           6       1:   48   25:   48   46:   90
           7       1:   48   25:   48   91:  135
           8       1:   48   25:   48  136:  180

InitMesh: MESH =    96 x    96 x   360 =     3317760
InitMesh: (bp) =    48 x    48 x   180 =      414720
InitMesh: Mesh cutoff (required, used) =   300.000   336.504 Ry
ExtMesh (bp) on 0 =   136 x   112 x   133 =     2025856
New grid distribution:   2
           1       1:   48    1:   24    1:   32
           2       1:   48    1:   23   33:  114
           3       1:   48    1:   24  115:  148
           4       1:   48    1:   24  149:  180
           5       1:   48   25:   48    1:   32
           6       1:   48   24:   48   33:  114
           7       1:   48   25:   48  115:  148
           8       1:   48   25:   48  149:  180
New grid distribution:   3
           1       1:   48   25:   48  137:  180
           2       1:   48    1:   23   45:   92
           3       1:   48    1:   24    1:   44
           4       1:   48    1:   24  137:  180
           5       1:   48   25:   48    1:   44
           6       1:   48   24:   48   45:   92
           7       1:   48   25:   48   93:  136
           8       1:   48    1:   24   93:  136
Setting up quadratic distribution...
ExtMesh (bp) on 0 =   136 x   112 x   120 =     1827840
PhiOnMesh: Number of (b)points on node 0 =                36864
PhiOnMesh: nlist on node 0 =              3132414

ts: Using electrode: Right for Hartree correction
ts: Grid fraction plane  0.96875
ts: Grid point plane (Ang):       0.00000       0.00000      31.60605

ts-voltage: Ramp  0.125 eV to -0.125 eV placed between cell coordinates (Ang):
  {    0.000     0.000     6.434 } to {     0.000     0.000    24.107 }
ts-Vha: -0.23485E-05 eV

stepf: Fermi-Dirac step function
ts-Vha: -0.32352E+02 eV

siesta: Program's energy decomposition (eV):
siesta: Ebs     =     18252.894434
siesta: Eions   =    106428.788183
siesta: Ena     =       385.361141
siesta: Ekin    =     71442.458202
siesta: Enl     =    -46040.809848
siesta: Eso     =         0.000000
siesta: Eldau   =         0.000000
siesta: DEna    =       166.483928
siesta: DUscf   =       281.393971
siesta: DUext   =         0.000000
siesta: Enegf   =         0.000000
siesta: Exc     =    -80125.065014
siesta: eta*DQ  =         0.000000
siesta: Emadel  =         0.000000
siesta: Emeta   =         0.000000
siesta: Emolmec =         0.000000
siesta: Ekinion =         0.000000
siesta: Eharris =   -159814.554792
siesta: Etot    =   -160318.965804
siesta: FreeEng =   -160319.058943

        iscf     Eharris(eV)        E_KS(eV)     FreeEng(eV)     dDmax    Ef(eV) dHmax(eV)
   scf:    1  -159814.554792  -160318.965804  -160319.058943  0.762794 -1.957224 74.702186
timer: Routine,Calls,Time,% = IterSCF        1      30.984   8.16
ts-Vha:  0.92329E+02 eV
   scf:    2  -156832.152112  -159515.371068  -159515.491610  0.898921 -0.917128172.909944
ts-Vha:  0.11226E+02 eV
   scf:    3  -160702.318435  -160487.023717  -160487.164483  0.319007 -1.855248 21.935656
ts-Vha:  0.87990E+00 eV
   scf:    4  -160506.192107  -160507.470951  -160507.636353  0.219216 -2.183244  8.932265
ts-Vha:  0.25358E+01 eV
   scf:    5  -160503.182368  -160509.973368  -160510.095767  0.154200 -2.085586  7.182494
ts-Vha:  0.15227E+01 eV
   scf:    6  -160513.212176  -160514.124482  -160514.273101  0.166315 -2.276191  7.526660
ts-Vha:  0.19959E+01 eV
   scf:    7  -160513.732807  -160514.586285  -160514.723249  0.052776 -2.223721  5.985853
ts-Vha:  0.20279E+01 eV
   scf:    8  -160519.144211  -160516.923204  -160517.057300  0.027749 -2.315211  5.617964
ts-Vha: -0.43474E+01 eV
   scf:    9  -160510.441012  -160520.021693  -160520.162251  0.146152 -3.711302 10.298175
ts-Vha:  0.71881E+00 eV
   scf:   10  -160521.897806  -160524.245562  -160524.379681  0.092831 -2.787032  1.960334
ts-Vha:  0.51456E-01 eV
   scf:   11  -160527.429577  -160526.048087  -160526.186642  0.030844 -3.099325  0.633736
ts-Vha: -0.12004E+00 eV
   scf:   12  -160526.250577  -160526.163648  -160526.301639  0.006113 -3.154378  0.212492
ts-Vha: -0.12338E+00 eV
   scf:   13  -160526.223832  -160526.195560  -160526.333722  0.002157 -3.169011  0.250569
ts-Vha: -0.74533E-01 eV
   scf:   14  -160526.247513  -160526.228512  -160526.366801  0.004983 -3.214827  0.164184
ts-Vha: -0.76255E-01 eV
   scf:   15  -160526.243702  -160526.236591  -160526.374854  0.001543 -3.216335  0.150163
ts-Vha: -0.55505E-01 eV
   scf:   16  -160526.249624  -160526.243496  -160526.381696  0.001728 -3.212158  0.076673
ts-Vha: -0.58610E-01 eV
   scf:   17  -160526.245934  -160526.244731  -160526.382885  0.000457 -3.212664  0.074821
ts-Vha: -0.60534E-01 eV
   scf:   18  -160526.254858  -160526.251211  -160526.389011  0.004518 -3.209146  0.043178
ts-Vha: -0.64049E-01 eV
   scf:   19  -160526.251915  -160526.251612  -160526.389377  0.000365 -3.212447  0.024689
ts-Vha: -0.63358E-01 eV
   scf:   20  -160526.251917  -160526.251776  -160526.389523  0.000490 -3.214342  0.020761
ts-Vha: -0.65738E-01 eV
   scf:   21  -160526.251878  -160526.251831  -160526.389568  0.000339 -3.215371  0.015696
ts-Vha: -0.66534E-01 eV
   scf:   22  -160526.251835  -160526.251836  -160526.389583  0.000288 -3.216428  0.010189
ts-Vha: -0.67487E-01 eV
   scf:   23  -160526.251833  -160526.251838  -160526.389608  0.000437 -3.216647  0.006906
ts-Vha: -0.66571E-01 eV
   scf:   24  -160526.251857  -160526.251848  -160526.389620  0.000131 -3.216618  0.004898
ts-Vha: -0.68044E-01 eV
   scf:   25  -160526.251893  -160526.251872  -160526.389638  0.000358 -3.217251  0.005749
ts-Vha: -0.66701E-01 eV
   scf:   26  -160526.251940  -160526.251908  -160526.389662  0.000394 -3.217263  0.002048
ts-Vha: -0.67491E-01 eV
   scf:   27  -160526.251923  -160526.251916  -160526.389665  0.000140 -3.217281  0.001933
ts-Vha: -0.67718E-01 eV
   scf:   28  -160526.251926  -160526.251922  -160526.389668  0.000041 -3.216997  0.002970
ts-Vha: -0.67658E-01 eV
   scf:   29  -160526.251918  -160526.251920  -160526.389669  0.000057 -3.217040  0.000774

SCF Convergence by DM+H criterion
max |DM_out - DM_in|         :     0.0000567666
max |H_out - H_in|      (eV) :     0.0007743502
SCF cycle converged after 29 iterations

                     ***************************
                     *  WELCOME TO TRANSIESTA  *
                     ***************************

ts-Vha: -0.67658E-01 eV

transiesta: created H and S sparsity pattern:
  <sparsity:(M of: G ((UC of: T T T sparsity for geom step 0)))
    nrows_g=1008 nrows=1008 sparsity=.2161 nnzs=219576, refcount: 1>

transiesta: created local update sparsity pattern:
  <sparsity:(M of: T T T sparsity for geom step 0)
    nrows_g=1008 nrows=144 sparsity=.0252 nnzs=25633, refcount: 1>

transiesta: created update sparsity pattern:
  <sparsity:G ((UC of: (M of: T T T sparsity for geom step 0)))
    nrows_g=1008 nrows=1008 sparsity=.0674 nnzs=68460, refcount: 1>

transiesta: Determining an optimal tri-matrix using: atom+Left
transiesta: Established a near-optimal partition for the tri-diagonal matrix.
BTD partitions (4): 
  [ [252] * 4 ]
transiesta: Matrix elements in % of full matrix:  62.50000 %

transiesta: mem of electrodes (static):                     9.61MB
transiesta: mem of global update arrays (static):          10.88MB
transiesta: mem of master node sparse arrays:               1.17MB
transiesta: mem of tri-diagonal matrices:                  19.38MB
transiesta: Total memory usage:                            41.05MB

transiesta: Charge distribution, target =   1232.00000
Total charge                  [Q]  :  1232.00000
Device                        [D]  :   436.13944
Left                          [E1] :   392.14633
Left                 / device [C1] :     3.87048
Right                         [E2] :   392.14633
Right                / device [C2] :     3.87047
Other                         [O]  :     3.82694

ts-err-D: ij(  447,   447), M =  1.8288   , ew = -.17563E-2, em = 0.17574E-2. avg_em = 0.35133E-06
ts-err-E: ij(  447,   447), M = -6.8436   , ew = 0.31253E-3, em = -.31274E-3. avg_em = -.69180E-07
ts-w-q:               qP1       qP2
ts-w-q:           219.206   217.001
ts-q:         D        E1        C1        E2        C2        dQ
ts-q:   436.207   392.146     3.870   392.146     3.870  6.799E-2
ts-Vha: -0.16838E+00 eV

siesta: Program's energy decomposition (eV):
siesta: Ebs     =     -9151.602798
siesta: Eions   =    106428.788183
siesta: Ena     =       385.361141
siesta: Ekin    =     73198.717994
siesta: Enl     =    -47376.269635
siesta: Eso     =         0.000000
siesta: Eldau   =         0.000000
siesta: DEna    =       104.834583
siesta: DUscf   =        41.062402
siesta: DUext   =         0.000000
siesta: Enegf   =         0.275662
siesta: Exc     =    -80451.520237
siesta: eta*DQ  =         0.000000
siesta: Emadel  =         0.000000
siesta: Emeta   =         0.000000
siesta: Emolmec =         0.000000
siesta: Ekinion =         0.000000
siesta: Eharris =   -160526.809847
siesta: Etot    =   -160526.601936
siesta: FreeEng =   -160526.601936

        iscf     Eharris(eV)        E_KS(eV)     FreeEng(eV)     dDmax    Ef(eV) dHmax(eV)
ts-scf:    1  -160526.809847  -160526.601936  -160526.601936  0.031397 -3.217040  1.063762
timer: Routine,Calls,Time,% = TS             1      52.374   4.70
ts-err-D: ij(  474,   474), M =  1.8261   , ew = -.35214E-2, em = 0.35958E-2. avg_em = 0.80297E-06
ts-err-E: ij(  456,  7530), M = 0.16352E-1, ew = -.28098E-3, em = -.56005E-3. avg_em = -.12916E-06
ts-w-q:               qP1       qP2
ts-w-q:           218.850   217.222
ts-q:         D        E1        C1        E2        C2        dQ
ts-q:   436.072   392.146     3.870   392.146     3.870 -6.734E-2
ts-Vha:  0.10284E+00 eV
ts-scf:    2  -160524.569602  -160525.929710  -160525.929710  0.011982 -3.217040  1.992005
ts-err-D: ij(  447,   447), M =  1.8279   , ew = -.25544E-2, em = 0.25576E-2. avg_em = 0.53804E-06
ts-err-E: ij(  447,   447), M = -6.7983   , ew = 0.43589E-3, em = -.43643E-3. avg_em = -.97778E-07
ts-w-q:               qP1       qP2
ts-w-q:           219.205   216.954
ts-q:         D        E1        C1        E2        C2        dQ
ts-q:   436.159   392.146     3.870   392.146     3.870  1.970E-2
ts-Vha: -0.77267E-01 eV
ts-scf:    3  -160526.827973  -160526.541704  -160526.541704  0.007931 -3.217040  0.145429
ts-err-D: ij(  447,   447), M =  1.8274   , ew = -.25688E-2, em = 0.25721E-2. avg_em = 0.54185E-06
ts-err-E: ij(  447,   447), M = -6.7842   , ew = 0.43800E-3, em = -.43855E-3. avg_em = -.98321E-07
ts-w-q:               qP1       qP2
ts-w-q:           219.202   216.940
ts-q:         D        E1        C1        E2        C2        dQ
ts-q:   436.142   392.146     3.870   392.146     3.870  2.247E-3
ts-Vha: -0.50602E-01 eV
ts-scf:    4  -160526.431775  -160526.488887  -160526.488887  0.004934 -3.217040  0.085128
ts-err-D: ij(  447,   447), M =  1.8274   , ew = -.25391E-2, em = 0.25418E-2. avg_em = 0.53574E-06
ts-err-E: ij(  447,   447), M = -6.7828   , ew = 0.43399E-3, em = -.43446E-3. avg_em = -.97519E-07
ts-w-q:               qP1       qP2
ts-w-q:           219.184   216.974
ts-q:         D        E1        C1        E2        C2        dQ
ts-q:   436.158   392.146     3.870   392.146     3.870  1.812E-2
ts-Vha: -0.85239E-01 eV
ts-scf:    5  -160526.604574  -160526.547823  -160526.547823  0.001204 -3.217040  0.062412
ts-err-D: ij(  447,   447), M =  1.8273   , ew = -.25737E-2, em = 0.25767E-2. avg_em = 0.54103E-06
ts-err-E: ij(  447,   447), M = -6.7799   , ew = 0.43898E-3, em = -.43949E-3. avg_em = -.98187E-07
ts-w-q:               qP1       qP2
ts-w-q:           219.177   216.964
ts-q:         D        E1        C1        E2        C2        dQ
ts-q:   436.141   392.146     3.870   392.146     3.870  1.511E-3
ts-Vha: -0.61366E-01 eV
ts-scf:    6  -160526.447849  -160526.497339  -160526.497339  0.003891 -3.217040  0.027815
ts-err-D: ij(  447,   447), M =  1.8273   , ew = -.25681E-2, em = 0.25709E-2. avg_em = 0.54003E-06
ts-err-E: ij(  447,   447), M = -6.7806   , ew = 0.43825E-3, em = -.43874E-3. avg_em = -.98068E-07
ts-w-q:               qP1       qP2
ts-w-q:           219.173   216.975
ts-q:         D        E1        C1        E2        C2        dQ
ts-q:   436.147   392.146     3.870   392.146     3.870  7.960E-3
ts-Vha: -0.72904E-01 eV
ts-scf:    7  -160526.548562  -160526.523199  -160526.523199  0.000174 -3.217040  0.009067
ts-err-D: ij(  447,   447), M =  1.8274   , ew = -.25736E-2, em = 0.25766E-2. avg_em = 0.54114E-06
ts-err-E: ij(  447,   447), M = -6.7810   , ew = 0.43895E-3, em = -.43946E-3. avg_em = -.98201E-07
ts-w-q:               qP1       qP2
ts-w-q:           219.169   216.979
ts-q:         D        E1        C1        E2        C2        dQ
ts-q:   436.148   392.146     3.870   392.146     3.870  8.701E-3
ts-Vha: -0.73988E-01 eV
ts-scf:    8  -160526.539956  -160526.531604  -160526.531604  0.000598 -3.217040  0.008272
ts-err-D: ij(  447,   447), M =  1.8274   , ew = -.25799E-2, em = 0.25831E-2. avg_em = 0.54238E-06
ts-err-E: ij(  447,   447), M = -6.7819   , ew = 0.43959E-3, em = -.44014E-3. avg_em = -.98311E-07
ts-w-q:               qP1       qP2
ts-w-q:           219.163   216.985
ts-q:         D        E1        C1        E2        C2        dQ
ts-q:   436.148   392.146     3.870   392.146     3.870  8.617E-3
ts-Vha: -0.73870E-01 eV
ts-scf:    9  -160526.545343  -160526.538453  -160526.538453  0.000497 -3.217040  0.007441
ts-err-D: ij(  447,   447), M =  1.8275   , ew = -.25805E-2, em = 0.25839E-2. avg_em = 0.54258E-06
ts-err-E: ij(  447,   447), M = -6.7826   , ew = 0.43954E-3, em = -.44011E-3. avg_em = -.98309E-07
ts-w-q:               qP1       qP2
ts-w-q:           219.161   216.987
ts-q:         D        E1        C1        E2        C2        dQ
ts-q:   436.148   392.146     3.870   392.146     3.870  8.519E-3
ts-Vha: -0.73666E-01 eV
ts-scf:   10  -160526.542144  -160526.540314  -160526.540314  0.000181 -3.217040  0.005226
ts-err-D: ij(  447,   447), M =  1.8275   , ew = -.25809E-2, em = 0.25845E-2. avg_em = 0.54260E-06
ts-err-E: ij(  447,   447), M = -6.7832   , ew = 0.43939E-3, em = -.43999E-3. avg_em = -.98264E-07
ts-w-q:               qP1       qP2
ts-w-q:           219.158   216.989
ts-q:         D        E1        C1        E2        C2        dQ
ts-q:   436.148   392.146     3.870   392.146     3.870  8.087E-3
ts-Vha: -0.73044E-01 eV
ts-scf:   11  -160526.542771  -160526.541515  -160526.541515  0.000154 -3.217040  0.002793
ts-err-D: ij(  447,   447), M =  1.8275   , ew = -.25797E-2, em = 0.25834E-2. avg_em = 0.54230E-06
ts-err-E: ij(  447,   447), M = -6.7845   , ew = 0.43896E-3, em = -.43959E-3. avg_em = -.98163E-07
ts-w-q:               qP1       qP2
ts-w-q:           219.153   216.994
ts-q:         D        E1        C1        E2        C2        dQ
ts-q:   436.147   392.146     3.870   392.146     3.870  7.833E-3
ts-Vha: -0.72762E-01 eV
ts-scf:   12  -160526.547845  -160526.544687  -160526.544687  0.000190 -3.217040  0.001870
ts-err-D: ij(  447,   447), M =  1.8275   , ew = -.25796E-2, em = 0.25833E-2. avg_em = 0.54223E-06
ts-err-E: ij(  447,   447), M = -6.7846   , ew = 0.43891E-3, em = -.43955E-3. avg_em = -.98142E-07
ts-w-q:               qP1       qP2
ts-w-q:           219.152   216.995
ts-q:         D        E1        C1        E2        C2        dQ
ts-q:   436.147   392.146     3.870   392.146     3.870  7.676E-3
ts-Vha: -0.72566E-01 eV
ts-scf:   13  -160526.544679  -160526.544671  -160526.544671  0.000081 -3.217040  0.000936

SCF Convergence by DM+H criterion
max |DM_out - DM_in|         :     0.0000814285
max |H_out - H_in|      (eV) :     0.0009362132
SCF cycle converged after 13 iterations

Using DM_out to compute the final energy and forces
No. of atoms with KB's overlaping orbs in proc 0. Max # of overlaps:     341     267
ts-Vha: -0.72566E-01 eV

siesta: E_KS(eV) =          -160526.5447

siesta: E_KS - E_eggbox =   -160526.5447

siesta: Atomic forces (eV/Ang):
----------------------------------------
   Tot   -0.001245   -0.001245    0.216038
----------------------------------------
   Max    1.299225
   Res    0.296526    sqrt( Sum f_i^2 / 3N )
----------------------------------------
   Max    1.299225    constrained

Stress-tensor-Voigt (kbar):     -134.54     -134.54     -137.24        1.12        0.61        0.61
(Free)E + p*V (eV/cell)  -160320.1279
Target enthalpy (eV/cell)  -160526.5447

mulliken: Atomic and Orbital Populations:

Species: Au                  
Atom  Qatom  Qorb
               6s      5dxy    5dyz    5dz2    5dxz    5dx2-y2 6Ppy    6Ppz    
               6Ppx    
   1 10.998   0.973   1.932   1.890   1.939   1.890   1.894   0.158   0.161
              0.158
   2 10.999   0.976   1.932   1.890   1.940   1.890   1.894   0.158   0.161
              0.158
   3 10.999   0.976   1.932   1.889   1.940   1.890   1.894   0.158   0.162
              0.158
   4 10.999   0.976   1.932   1.890   1.940   1.890   1.894   0.158   0.161
              0.158
   5 10.999   0.975   1.933   1.889   1.939   1.889   1.894   0.159   0.162
              0.159
   6 10.999   0.975   1.932   1.890   1.939   1.891   1.894   0.158   0.162
              0.158
   7 10.999   0.976   1.932   1.890   1.940   1.889   1.894   0.158   0.162
              0.158
   8 10.999   0.975   1.932   1.891   1.939   1.890   1.894   0.158   0.162
              0.158
   9 10.999   0.974   1.933   1.890   1.938   1.890   1.894   0.159   0.162
              0.159
  10 11.004   0.987   1.935   1.886   1.939   1.886   1.894   0.159   0.160
              0.159
  11 11.002   0.981   1.935   1.887   1.940   1.886   1.894   0.159   0.161
              0.158
  12 11.003   0.984   1.935   1.886   1.940   1.886   1.894   0.159   0.161
              0.159
  13 11.002   0.981   1.935   1.886   1.940   1.887   1.894   0.158   0.161
              0.159
  14 11.001   0.982   1.935   1.888   1.940   1.888   1.894   0.159   0.157
              0.159
  15 11.001   0.980   1.935   1.887   1.939   1.887   1.894   0.159   0.161
              0.159
  16 11.003   0.984   1.935   1.886   1.940   1.886   1.894   0.159   0.161
              0.159
  17 11.001   0.980   1.935   1.887   1.939   1.887   1.894   0.159   0.161
              0.159
  18 11.004   0.985   1.935   1.886   1.940   1.886   1.894   0.159   0.161
              0.159
  19 10.997   0.971   1.932   1.890   1.939   1.890   1.894   0.159   0.164
              0.159
  20 11.000   0.978   1.932   1.889   1.940   1.891   1.893   0.158   0.160
              0.158
  21 11.001   0.979   1.932   1.888   1.940   1.890   1.893   0.158   0.160
              0.159
  22 11.000   0.978   1.932   1.891   1.940   1.889   1.893   0.158   0.160
              0.158
  23 11.000   0.978   1.932   1.889   1.940   1.889   1.894   0.159   0.160
              0.159
  24 11.000   0.978   1.932   1.889   1.941   1.890   1.894   0.158   0.159
              0.159
  25 11.001   0.979   1.932   1.890   1.940   1.888   1.893   0.159   0.160
              0.158
  26 11.000   0.978   1.932   1.890   1.941   1.889   1.894   0.159   0.159
              0.158
  27 10.999   0.977   1.933   1.889   1.940   1.889   1.894   0.159   0.159
              0.159
  28 10.998   0.975   1.936   1.891   1.939   1.891   1.889   0.159   0.160
              0.159
  29 10.999   0.972   1.935   1.890   1.938   1.891   1.889   0.160   0.164
              0.160
  30 10.998   0.975   1.935   1.890   1.939   1.891   1.889   0.159   0.161
              0.159
  31 10.999   0.972   1.935   1.891   1.938   1.890   1.889   0.160   0.164
              0.160
  32 11.001   0.973   1.934   1.890   1.937   1.890   1.890   0.161   0.165
              0.161
  33 10.999   0.973   1.935   1.891   1.938   1.890   1.889   0.160   0.163
              0.160
  34 10.998   0.975   1.935   1.891   1.939   1.890   1.889   0.159   0.161
              0.159
  35 10.999   0.973   1.935   1.890   1.938   1.891   1.889   0.160   0.163
              0.160
  36 10.998   0.973   1.935   1.890   1.938   1.890   1.889   0.160   0.162
              0.160
  37 10.960   0.948   1.938   1.902   1.939   1.902   1.878   0.153   0.148
              0.153
  38 10.971   0.955   1.938   1.902   1.927   1.900   1.881   0.153   0.162
              0.153
  39 10.972   0.959   1.938   1.902   1.927   1.901   1.880   0.153   0.159
              0.153
  40 10.971   0.955   1.938   1.900   1.927   1.902   1.881   0.153   0.162
              0.153
  41 10.973   0.954   1.939   1.901   1.928   1.901   1.878   0.154   0.165
              0.154
  42 10.975   0.957   1.939   1.901   1.927   1.902   1.878   0.153   0.165
              0.154
  43 10.972   0.959   1.938   1.901   1.927   1.902   1.880   0.153   0.159
              0.153
  44 10.975   0.957   1.939   1.902   1.927   1.901   1.878   0.154   0.165
              0.153
  45 10.978   0.963   1.938   1.900   1.927   1.900   1.878   0.154   0.164
              0.154
  46 11.014   1.006   1.950   1.915   1.935   1.915   1.868   0.142   0.141
              0.142
  47 11.028   1.038   1.949   1.921   1.948   1.927   1.861   0.136   0.111
              0.137
  48 11.014   1.013   1.949   1.912   1.939   1.917   1.867   0.144   0.132
              0.141
  49 11.028   1.038   1.949   1.927   1.948   1.921   1.861   0.137   0.111
              0.136
  50 11.033   1.046   1.948   1.922   1.949   1.922   1.861   0.137   0.110
              0.137
  51 11.026   1.039   1.949   1.927   1.948   1.922   1.861   0.135   0.110
              0.135
  52 11.014   1.013   1.949   1.917   1.939   1.912   1.867   0.141   0.132
              0.144
  53 11.026   1.039   1.949   1.922   1.948   1.927   1.861   0.135   0.110
              0.135
  54 11.031   1.030   1.948   1.911   1.937   1.911   1.869   0.144   0.137
              0.144
  55 11.043   1.091   1.928   1.900   1.962   1.900   1.976   0.085   0.116
              0.085
  56 11.006   1.071   1.977   1.939   1.965   1.939   1.986   0.025   0.077
              0.025
  57 11.017   1.091   1.977   1.936   1.965   1.936   1.986   0.025   0.076
              0.025
  58 11.041   1.090   1.927   1.899   1.962   1.899   1.976   0.083   0.122
              0.083
  59 11.012   1.001   1.950   1.914   1.936   1.914   1.867   0.144   0.142
              0.144
  60 11.012   1.008   1.949   1.912   1.939   1.917   1.867   0.146   0.132
              0.143
  61 11.025   1.034   1.949   1.921   1.948   1.928   1.860   0.137   0.110
              0.138
  62 11.012   1.008   1.949   1.917   1.939   1.912   1.867   0.143   0.132
              0.146
  63 11.031   1.027   1.948   1.911   1.937   1.911   1.868   0.146   0.136
              0.146
  64 11.023   1.034   1.949   1.921   1.948   1.927   1.860   0.137   0.108
              0.138
  65 11.025   1.034   1.949   1.928   1.948   1.921   1.860   0.138   0.110
              0.137
  66 11.023   1.034   1.949   1.927   1.948   1.921   1.860   0.138   0.108
              0.137
  67 11.030   1.041   1.949   1.922   1.949   1.922   1.861   0.139   0.108
              0.139
  68 10.960   0.948   1.937   1.901   1.942   1.901   1.877   0.152   0.149
              0.152
  69 10.972   0.959   1.938   1.901   1.927   1.901   1.881   0.152   0.160
              0.152
  70 10.973   0.958   1.938   1.901   1.927   1.899   1.881   0.153   0.162
              0.153
  71 10.972   0.959   1.938   1.901   1.927   1.901   1.881   0.152   0.160
              0.152
  72 10.979   0.964   1.938   1.900   1.927   1.900   1.878   0.154   0.165
              0.154
  73 10.976   0.959   1.939   1.901   1.927   1.900   1.878   0.153   0.165
              0.153
  74 10.973   0.958   1.938   1.899   1.927   1.901   1.881   0.153   0.162
              0.153
  75 10.976   0.959   1.939   1.900   1.927   1.901   1.878   0.153   0.165
              0.153
  76 10.974   0.956   1.939   1.901   1.927   1.901   1.878   0.154   0.165
              0.154
  77 10.998   0.975   1.936   1.891   1.939   1.891   1.889   0.159   0.160
              0.159
  78 10.998   0.975   1.935   1.890   1.939   1.891   1.889   0.159   0.161
              0.159
  79 10.999   0.972   1.935   1.890   1.938   1.891   1.889   0.160   0.164
              0.160
  80 10.998   0.975   1.935   1.891   1.939   1.890   1.889   0.159   0.161
              0.159
  81 10.998   0.973   1.935   1.890   1.938   1.890   1.889   0.160   0.162
              0.160
  82 10.999   0.973   1.935   1.890   1.938   1.891   1.889   0.160   0.163
              0.160
  83 10.999   0.972   1.935   1.891   1.938   1.890   1.889   0.160   0.164
              0.160
  84 10.999   0.973   1.935   1.891   1.938   1.890   1.889   0.160   0.163
              0.160
  85 11.001   0.973   1.934   1.890   1.937   1.890   1.890   0.161   0.165
              0.161
  86 10.997   0.971   1.932   1.890   1.939   1.890   1.894   0.159   0.164
              0.159
  87 11.001   0.979   1.932   1.888   1.940   1.890   1.893   0.158   0.160
              0.159
  88 11.000   0.978   1.932   1.889   1.940   1.891   1.893   0.158   0.160
              0.158
  89 11.001   0.979   1.932   1.890   1.940   1.888   1.893   0.159   0.160
              0.158
  90 10.999   0.977   1.933   1.889   1.940   1.889   1.894   0.159   0.159
              0.159
  91 11.000   0.978   1.932   1.890   1.941   1.889   1.894   0.159   0.159
              0.158
  92 11.000   0.978   1.932   1.891   1.940   1.889   1.893   0.158   0.160
              0.158
  93 11.000   0.978   1.932   1.889   1.941   1.890   1.894   0.158   0.159
              0.159
  94 11.000   0.978   1.932   1.889   1.940   1.889   1.894   0.159   0.160
              0.159
  95 11.004   0.987   1.935   1.886   1.939   1.886   1.894   0.159   0.160
              0.159
  96 11.003   0.984   1.935   1.886   1.940   1.886   1.894   0.159   0.161
              0.159
  97 11.002   0.981   1.935   1.887   1.940   1.886   1.894   0.159   0.161
              0.158
  98 11.003   0.984   1.935   1.886   1.940   1.886   1.894   0.159   0.161
              0.159
  99 11.004   0.985   1.935   1.886   1.940   1.886   1.894   0.159   0.161
              0.159
 100 11.001   0.980   1.935   1.887   1.939   1.887   1.894   0.159   0.161
              0.159
 101 11.002   0.981   1.935   1.886   1.940   1.887   1.894   0.158   0.161
              0.159
 102 11.001   0.980   1.935   1.887   1.939   1.887   1.894   0.159   0.161
              0.159
 103 11.001   0.982   1.935   1.888   1.940   1.888   1.894   0.159   0.157
              0.159
 104 10.998   0.973   1.932   1.890   1.939   1.890   1.894   0.158   0.161
              0.158
 105 10.999   0.976   1.932   1.889   1.940   1.890   1.894   0.158   0.162
              0.158
 106 10.999   0.976   1.932   1.890   1.940   1.890   1.894   0.158   0.161
              0.158
 107 10.999   0.976   1.932   1.890   1.940   1.889   1.894   0.158   0.162
              0.158
 108 10.999   0.974   1.933   1.890   1.938   1.890   1.894   0.159   0.162
              0.159
 109 10.999   0.975   1.932   1.891   1.939   1.890   1.894   0.158   0.162
              0.158
 110 10.999   0.976   1.932   1.890   1.940   1.890   1.894   0.158   0.161
              0.158
 111 10.999   0.975   1.932   1.890   1.939   1.891   1.894   0.158   0.162
              0.158
 112 10.999   0.975   1.933   1.889   1.939   1.889   1.894   0.159   0.162
              0.159

mulliken: Qtot =     1232.008

coxmol: Writing XMOL coordinates into file au_100.xyz                                                          

siesta: Program's energy decomposition (eV):
siesta: Ebs     =     -9254.301065
siesta: Eions   =    106428.788183
siesta: Ena     =       385.361141
siesta: Ekin    =     73197.391663
siesta: Enl     =    -47375.913563
siesta: Eso     =         0.000000
siesta: Eldau   =         0.000000
siesta: DEna    =       105.100035
siesta: DUscf   =        40.968085
siesta: DUext   =         0.000000
siesta: Enegf   =         0.269713
siesta: Exc     =    -80450.663848
siesta: eta*DQ  =         0.000000
siesta: Emadel  =         0.000000
siesta: Emeta   =         0.000000
siesta: Emolmec =         0.000000
siesta: Ekinion =         0.000000
siesta: Eharris =   -160526.544679
siesta: Etot    =   -160526.544671
siesta: FreeEng =   -160526.544671

siesta: Final energy (eV):
siesta:  Band Struct. =   -9254.301065
siesta:       Kinetic =   73197.391663
siesta:       Hartree =  242702.117833
siesta:       Eldau   =       0.000000
siesta:       Eso     =       0.000000
siesta:    Ext. field =       0.000000
siesta:       Enegf   =       0.269713
siesta:   Exch.-corr. =  -80450.663848
siesta:  Ion-electron = -541533.586416
siesta:       Ion-ion =  145558.196097
siesta:       Ekinion =       0.000000
siesta:         Total = -160526.544671
siesta:         Fermi =      -3.217040

siesta: Atomic forces (eV/Ang):
siesta:      1   -0.005989   -0.005989   -0.003464
siesta:      2    0.005803   -0.000404   -0.012059
siesta:      3   -0.000352    0.001198   -0.011545
siesta:      4   -0.000404    0.005803   -0.012059
siesta:      5    0.000578    0.000578    0.011826
siesta:      6   -0.000876   -0.011420   -0.005964
siesta:      7    0.001198   -0.000352   -0.011545
siesta:      8   -0.011420   -0.000876   -0.005964
siesta:      9    0.010793    0.010793    0.008198
siesta:     10    0.001564    0.001564    0.034439
siesta:     11   -0.004363   -0.005994    0.050757
siesta:     12    0.003010   -0.002727    0.038308
siesta:     13   -0.005994   -0.004363    0.050757
siesta:     14   -0.004939   -0.004939    0.038087
siesta:     15    0.010819   -0.003273    0.058802
siesta:     16   -0.002727    0.003010    0.038308
siesta:     17   -0.003273    0.010819    0.058802
siesta:     18    0.005823    0.005823    0.049009
siesta:     19   -0.010668   -0.010668   -0.064862
siesta:     20    0.011099   -0.000250   -0.076473
siesta:     21    0.001323    0.004015   -0.087744
siesta:     22   -0.000250    0.011099   -0.076473
siesta:     23    0.003731    0.003731   -0.099449
siesta:     24   -0.003910   -0.007662   -0.086973
siesta:     25    0.004015    0.001323   -0.087744
siesta:     26   -0.007662   -0.003910   -0.086973
siesta:     27    0.003453    0.003453   -0.091496
siesta:     28    0.007738    0.007738    0.032219
siesta:     29   -0.002925   -0.001349   -0.011356
siesta:     30   -0.006251   -0.000488    0.019704
siesta:     31   -0.001349   -0.002925   -0.011356
siesta:     32   -0.008893   -0.008893    0.048894
siesta:     33    0.009906   -0.001577   -0.006504
siesta:     34   -0.000488   -0.006251    0.019704
siesta:     35   -0.001577    0.009906   -0.006504
siesta:     36   -0.000908   -0.000908    0.035173
siesta:     37   -0.006529   -0.006529   -0.320466
siesta:     38    0.016099   -0.004486   -0.028538
siesta:     39   -0.005192   -0.007204   -0.031203
siesta:     40   -0.004486    0.016099   -0.028538
siesta:     41   -0.061075   -0.061075    0.095330
siesta:     42    0.069036   -0.045701    0.078604
siesta:     43   -0.007204   -0.005192   -0.031203
siesta:     44   -0.045701    0.069036    0.078604
siesta:     45    0.058630    0.058630    0.056146
siesta:     46    0.295620    0.295620    1.263928
siesta:     47   -0.019510    0.022317    1.088711
siesta:     48   -0.261487    0.225362    1.189689
siesta:     49    0.022317   -0.019510    1.088711
siesta:     50    0.000255    0.000255    1.102938
siesta:     51   -0.019748   -0.009606    1.065868
siesta:     52    0.225362   -0.261487    1.189689
siesta:     53   -0.009606   -0.019748    1.065868
siesta:     54   -0.169512   -0.169512    1.299225
siesta:     55    0.351475    0.351475    0.368739
siesta:     56   -0.935398   -0.935398   -0.014823
siesta:     57    0.937646    0.937646    0.000257
siesta:     58   -0.394877   -0.394877   -0.376353
siesta:     59   -0.264724   -0.264724   -1.272669
siesta:     60    0.241724   -0.202449   -1.185748
siesta:     61    0.012834   -0.016389   -1.079989
siesta:     62   -0.202449    0.241724   -1.185748
siesta:     63    0.154685    0.154685   -1.292180
siesta:     64    0.006485    0.016456   -1.051871
siesta:     65   -0.016389    0.012834   -1.079989
siesta:     66    0.016456    0.006485   -1.051871
siesta:     67   -0.002538   -0.002538   -1.098005
siesta:     68   -0.000280   -0.000280    0.297526
siesta:     69    0.006050    0.013244    0.023170
siesta:     70    0.003713    0.012810    0.036750
siesta:     71    0.013244    0.006050    0.023170
siesta:     72   -0.066261   -0.066261   -0.064815
siesta:     73    0.057511   -0.071528   -0.081657
siesta:     74    0.012810    0.003713    0.036750
siesta:     75   -0.071528    0.057511   -0.081657
siesta:     76    0.064897    0.064897   -0.083587
siesta:     77   -0.007935   -0.007935   -0.033408
siesta:     78    0.005227    0.000085   -0.020459
siesta:     79    0.003078    0.001335    0.011569
siesta:     80    0.000085    0.005227   -0.020459
siesta:     81    0.000003    0.000003   -0.034874
siesta:     82    0.001738   -0.011095    0.006513
siesta:     83    0.001335    0.003078    0.011569
siesta:     84   -0.011095    0.001738    0.006513
siesta:     85    0.008694    0.008694   -0.051016
siesta:     86    0.011301    0.011301    0.067456
siesta:     87   -0.000959   -0.004202    0.091818
siesta:     88   -0.012094    0.000371    0.080324
siesta:     89   -0.004202   -0.000959    0.091818
siesta:     90   -0.003633   -0.003633    0.095793
siesta:     91    0.008053    0.004113    0.091166
siesta:     92    0.000371   -0.012094    0.080324
siesta:     93    0.004113    0.008053    0.091166
siesta:     94   -0.004046   -0.004046    0.103596
siesta:     95   -0.001754   -0.001754   -0.032301
siesta:     96   -0.003048    0.003100   -0.036567
siesta:     97    0.004551    0.006175   -0.049034
siesta:     98    0.003100   -0.003048   -0.036567
siesta:     99   -0.006195   -0.006195   -0.047461
siesta:    100    0.003286   -0.011312   -0.057638
siesta:    101    0.006175    0.004551   -0.049034
siesta:    102   -0.011312    0.003286   -0.057638
siesta:    103    0.005254    0.005254   -0.035842
siesta:    104    0.006107    0.006107    0.021534
siesta:    105    0.000666   -0.001460    0.029960
siesta:    106   -0.006207    0.000664    0.030373
siesta:    107   -0.001460    0.000666    0.029960
siesta:    108   -0.010856   -0.010856    0.008528
siesta:    109    0.011730    0.000675    0.023803
siesta:    110    0.000664   -0.006207    0.030373
siesta:    111    0.000675    0.011730    0.023803
siesta:    112   -0.000645   -0.000645    0.005133
siesta: ----------------------------------------
siesta:    Tot   -0.001245   -0.001245    0.216038

siesta: Stress tensor (static) (eV/Ang**3):
siesta:    -0.083974    0.000700    0.000381
siesta:     0.000700   -0.083974    0.000381
siesta:     0.000378    0.000378   -0.085657

siesta: Cell volume =       2441.783730 Ang**3

siesta: Pressure (static):
siesta:                Solid            Molecule  Units
siesta:           0.00092070          0.00107279  Ry/Bohr**3
siesta:           0.08453526          0.09849984  eV/Ang**3
siesta:         135.44187488        157.81584037  kBar
(Free)E+ p_basis*V_orbitals  =     -160448.937225
(Free)Eharris+ p_basis*V_orbitals  =     -160448.937234
ts-Vha: -0.72566E-01 eV

dhscf: Vacuum level (max, mean) =    1.534990    1.406480 eV
>> End of run:   5-NOV-2018  12:49:07
Job completed
