
                           ***********************       
                           *  WELCOME TO TBTRANS *       
                           ***********************       

reinit: Reading from standard input
************************** Dump of input data file ****************************
SolutionMethod        Transiesta
SystemName  Au 100 with gold chain
SystemLabel au_100
==================================================
==================================================
# SPECIES AND BASIS
# Number of species
NumberOfSpecies 1
%block ChemicalSpeciesLabel
  1  79 Au
%endblock ChemicalSpeciesLabel
PAO.BasisSize    SZP
PAO.EnergyShift  0.005 Ry
XC.functional   GGA
XC.authors      PBE
==================================================
==================================================
# K-points
%block kgrid_Monkhorst_Pack
 2    0    0    0.0
 0    2    0    0.0
 0    0    2    0.0
%endblock kgrid_Monkhorst_Pack
==================================================
==================================================
# Structure
NumberOfAtoms 112
LatticeConstant 1.0 Ang
%block LatticeVectors
     8.651160000      0.000000000      0.000000000
     0.000000000      8.651160000      0.000000000
     0.000000000      0.000000000     32.625600000
%endblock LatticeVectors
AtomicCoordinatesFormat  Ang
%block AtomicCoordinatesAndAtomicSpecies
     0.000000000      0.000000000      0.000000000 1 # 1. layer
     2.883720000      0.000000000      0.000000000 1
     5.767440000      0.000000000      0.000000000 1
     0.000000000      2.883720000      0.000000000 1
     2.883720000      2.883720000      0.000000000 1
     5.767440000      2.883720000      0.000000000 1
     0.000000000      5.767440000      0.000000000 1
     2.883720000      5.767440000      0.000000000 1
     5.767440000      5.767440000      0.000000000 1
     1.441860000      1.441860000      2.039100000 1 # 2. layer
     4.325580000      1.441860000      2.039100000 1
     7.209300000      1.441860000      2.039100000 1
     1.441860000      4.325580000      2.039100000 1
     4.325580000      4.325580000      2.039100000 1
     7.209300000      4.325580000      2.039100000 1
     1.441860000      7.209300000      2.039100000 1
     4.325580000      7.209300000      2.039100000 1
     7.209300000      7.209300000      2.039100000 1
     0.000000000      0.000000000      4.078200000 1 # 3. layer
     2.883720000      0.000000000      4.078200000 1
     5.767440000      0.000000000      4.078200000 1
     0.000000000      2.883720000      4.078200000 1
     2.883720000      2.883720000      4.078200000 1
     5.767440000      2.883720000      4.078200000 1
     0.000000000      5.767440000      4.078200000 1
     2.883720000      5.767440000      4.078200000 1
     5.767440000      5.767440000      4.078200000 1
     1.441860000      1.441860000      6.117300000 1 # 4. layer
     4.325580000      1.441860000      6.117300000 1
     7.209300000      1.441860000      6.117300000 1
     1.441860000      4.325580000      6.117300000 1
     4.325580000      4.325580000      6.117300000 1
     7.209300000      4.325580000      6.117300000 1
     1.441860000      7.209300000      6.117300000 1
     4.325580000      7.209300000      6.117300000 1
     7.209300000      7.209300000      6.117300000 1
     0.000000000      0.000000000      8.156400000 1 # 5. layer
     2.883720000      0.000000000      8.156400000 1
     5.767440000      0.000000000      8.156400000 1
     0.000000000      2.883720000      8.156400000 1
     2.883720000      2.883720000      8.156400000 1
     5.767440000      2.883720000      8.156400000 1
     0.000000000      5.767440000      8.156400000 1
     2.883720000      5.767440000      8.156400000 1
     5.767440000      5.767440000      8.156400000 1
     1.441860000      1.441860000     10.195500000 1 # 6. layer
     4.325580000      1.441860000     10.195500000 1
     7.209300000      1.441860000     10.195500000 1
     1.441860000      4.325580000     10.195500000 1
     4.325580000      4.325580000     10.195500000 1
     7.209300000      4.325580000     10.195500000 1
     1.441860000      7.209300000     10.195500000 1
     4.325580000      7.209300000     10.195500000 1
     7.209300000      7.209300000     10.195500000 1
     0.000000000      0.000000000     12.234600000 1 # 7. layer
     1.441860000      1.441860000     14.273700000 1 # 8. layer
     0.000000000      0.000000000     16.312800000 1 # 9. layer
     1.441860000      1.441860000     18.351900000 1 # 10. layer
     0.000000000      0.000000000     20.391000000 1 # 11. layer
     2.883720000      0.000000000     20.391000000 1
     5.767440000      0.000000000     20.391000000 1
     0.000000000      2.883720000     20.391000000 1
     2.883720000      2.883720000     20.391000000 1
     5.767440000      2.883720000     20.391000000 1
     0.000000000      5.767440000     20.391000000 1
     2.883720000      5.767440000     20.391000000 1
     5.767440000      5.767440000     20.391000000 1
     1.441860000      1.441860000     22.430100000 1 # 12. layer
     4.325580000      1.441860000     22.430100000 1
     7.209300000      1.441860000     22.430100000 1
     1.441860000      4.325580000     22.430100000 1
     4.325580000      4.325580000     22.430100000 1
     7.209300000      4.325580000     22.430100000 1
     1.441860000      7.209300000     22.430100000 1
     4.325580000      7.209300000     22.430100000 1
     7.209300000      7.209300000     22.430100000 1
     0.000000000      0.000000000     24.469200000 1 # 13. layer
     2.883720000      0.000000000     24.469200000 1
     5.767440000      0.000000000     24.469200000 1
     0.000000000      2.883720000     24.469200000 1
     2.883720000      2.883720000     24.469200000 1
     5.767440000      2.883720000     24.469200000 1
     0.000000000      5.767440000     24.469200000 1
     2.883720000      5.767440000     24.469200000 1
     5.767440000      5.767440000     24.469200000 1
     1.441860000      1.441860000     26.508300000 1 # 14. layer
     4.325580000      1.441860000     26.508300000 1
     7.209300000      1.441860000     26.508300000 1
     1.441860000      4.325580000     26.508300000 1
     4.325580000      4.325580000     26.508300000 1
     7.209300000      4.325580000     26.508300000 1
     1.441860000      7.209300000     26.508300000 1
     4.325580000      7.209300000     26.508300000 1
     7.209300000      7.209300000     26.508300000 1
     0.000000000      0.000000000     28.547400000 1 # 15. layer
     2.883720000      0.000000000     28.547400000 1
     5.767440000      0.000000000     28.547400000 1
     0.000000000      2.883720000     28.547400000 1
     2.883720000      2.883720000     28.547400000 1
     5.767440000      2.883720000     28.547400000 1
     0.000000000      5.767440000     28.547400000 1
     2.883720000      5.767440000     28.547400000 1
     5.767440000      5.767440000     28.547400000 1
     1.441860000      1.441860000     30.586500000 1 # 16. layer
     4.325580000      1.441860000     30.586500000 1
     7.209300000      1.441860000     30.586500000 1
     1.441860000      4.325580000     30.586500000 1
     4.325580000      4.325580000     30.586500000 1
     7.209300000      4.325580000     30.586500000 1
     1.441860000      7.209300000     30.586500000 1
     4.325580000      7.209300000     30.586500000 1
     7.209300000      7.209300000     30.586500000 1
%endblock AtomicCoordinatesAndAtomicSpecies
==================================================
==================================================
# SCF variables
DM.MixSCF1   T
MaxSCFIterations      300           # Maximum number of SCF iter
DM.MixingWeight       0.05          # New DM amount for next SCF cycle
DM.Tolerance          1.d-4         # Tolerance in maximum difference
DM.UseSaveDM          true          # to use continuation files
DM.NumberPulay        5
TS.MixH               yes
==================================================
==================================================
# MD variables
MD.FinalTimeStep 1
MD.TypeOfRun CG
MD.NumCGsteps     000
MD.UseSaveXV      .true.
==================================================
==================================================
# Output variables
WriteMullikenPop                1
WriteBands                      .false.
SaveRho                         .false.
SaveDeltaRho                    .false.
SaveHS                          .false.
SaveElectrostaticPotential      True
SaveTotalPotential              no
WriteCoorXmol                   .true.
WriteMDXmol                     .true.
WriteMDhistory                  .false.
WriteEigenvalues                yes
==================================================
==================================================
# Transmission
TS.TBT.NPoints      101
TS.TBT.Emin        -0.5 eV
TS.TBT.Emax         0.5 eV
TS.TBT.NEigen              9
# Bias voltage
TS.Voltage 0.25 eV
TS.biasContour.NumPoints       20
# Transiesta: electrode definition:
# LEFT ELECTRODE
TS.HSFileLeft ./elec_au_100.TSHS
TS.ReplicateA1Left    1
TS.ReplicateA2Left    1
TS.NumUsedAtomsLeft   36
TS.BufferAtomsLeft    0
# RIGHT ELECTRODE
TS.HSFileRight ./elec_au_100.TSHS
TS.ReplicateA1Right   1
TS.ReplicateA2Right   1
TS.NumUsedAtomsRight  36
TS.BufferAtomsRight   0
# SPECIES AND ATOMS
# DYNAMICS
TS.UseBulkInElectrodes  T
************************** End of input data file *****************************

reinit: -----------------------------------------------------------------------
reinit: System Name: Au 100 with gold chain
reinit: -----------------------------------------------------------------------
reinit: System Label: au_100                                                      
reinit: -----------------------------------------------------------------------
tbtrans: Voltage                         =     0.2500
Emin,Emax =      -0.499999      0.499999
Energy points in tbtrans =        101
tbtrans: Spin-polarized = F
 contour:  Simple Line Contour:
 contour:     -0.49505      0.00014      0.009900980   1
 contour:     -0.48515      0.00014      0.009900980   2
 contour:     -0.47525      0.00014      0.009900980   3
 contour:     -0.46535      0.00014      0.009900980   4
 contour:     -0.45545      0.00014      0.009900980   5
 contour:     -0.44554      0.00014      0.009900980   6
 contour:     -0.43564      0.00014      0.009900980   7
 contour:     -0.42574      0.00014      0.009900980   8
 contour:     -0.41584      0.00014      0.009900980   9
 contour:     -0.40594      0.00014      0.009900980  10
 contour:     -0.39604      0.00014      0.009900980  11
 contour:     -0.38614      0.00014      0.009900980  12
 contour:     -0.37624      0.00014      0.009900980  13
 contour:     -0.36634      0.00014      0.009900980  14
 contour:     -0.35644      0.00014      0.009900980  15
 contour:     -0.34653      0.00014      0.009900980  16
 contour:     -0.33663      0.00014      0.009900980  17
 contour:     -0.32673      0.00014      0.009900980  18
 contour:     -0.31683      0.00014      0.009900980  19
 contour:     -0.30693      0.00014      0.009900980  20
 contour:     -0.29703      0.00014      0.009900980  21
 contour:     -0.28713      0.00014      0.009900980  22
 contour:     -0.27723      0.00014      0.009900980  23
 contour:     -0.26733      0.00014      0.009900980  24
 contour:     -0.25743      0.00014      0.009900980  25
 contour:     -0.24752      0.00014      0.009900980  26
 contour:     -0.23762      0.00014      0.009900980  27
 contour:     -0.22772      0.00014      0.009900980  28
 contour:     -0.21782      0.00014      0.009900980  29
 contour:     -0.20792      0.00014      0.009900980  30
 contour:     -0.19802      0.00014      0.009900980  31
 contour:     -0.18812      0.00014      0.009900980  32
 contour:     -0.17822      0.00014      0.009900980  33
 contour:     -0.16832      0.00014      0.009900980  34
 contour:     -0.15842      0.00014      0.009900980  35
 contour:     -0.14851      0.00014      0.009900980  36
 contour:     -0.13861      0.00014      0.009900980  37
 contour:     -0.12871      0.00014      0.009900980  38
 contour:     -0.11881      0.00014      0.009900980  39
 contour:     -0.10891      0.00014      0.009900980  40
 contour:     -0.09901      0.00014      0.009900980  41
 contour:     -0.08911      0.00014      0.009900980  42
 contour:     -0.07921      0.00014      0.009900980  43
 contour:     -0.06931      0.00014      0.009900980  44
 contour:     -0.05941      0.00014      0.009900980  45
 contour:     -0.04950      0.00014      0.009900980  46
 contour:     -0.03960      0.00014      0.009900980  47
 contour:     -0.02970      0.00014      0.009900980  48
 contour:     -0.01980      0.00014      0.009900980  49
 contour:     -0.00990      0.00014      0.009900980  50
 contour:     -0.00000      0.00014      0.009900980  51
 contour:      0.00990      0.00014      0.009900980  52
 contour:      0.01980      0.00014      0.009900980  53
 contour:      0.02970      0.00014      0.009900980  54
 contour:      0.03960      0.00014      0.009900980  55
 contour:      0.04950      0.00014      0.009900980  56
 contour:      0.05941      0.00014      0.009900980  57
 contour:      0.06931      0.00014      0.009900980  58
 contour:      0.07921      0.00014      0.009900980  59
 contour:      0.08911      0.00014      0.009900980  60
 contour:      0.09901      0.00014      0.009900980  61
 contour:      0.10891      0.00014      0.009900980  62
 contour:      0.11881      0.00014      0.009900980  63
 contour:      0.12871      0.00014      0.009900980  64
 contour:      0.13861      0.00014      0.009900980  65
 contour:      0.14851      0.00014      0.009900980  66
 contour:      0.15842      0.00014      0.009900980  67
 contour:      0.16832      0.00014      0.009900980  68
 contour:      0.17822      0.00014      0.009900980  69
 contour:      0.18812      0.00014      0.009900980  70
 contour:      0.19802      0.00014      0.009900980  71
 contour:      0.20792      0.00014      0.009900980  72
 contour:      0.21782      0.00014      0.009900980  73
 contour:      0.22772      0.00014      0.009900980  74
 contour:      0.23762      0.00014      0.009900980  75
 contour:      0.24752      0.00014      0.009900980  76
 contour:      0.25743      0.00014      0.009900980  77
 contour:      0.26733      0.00014      0.009900980  78
 contour:      0.27723      0.00014      0.009900980  79
 contour:      0.28713      0.00014      0.009900980  80
 contour:      0.29703      0.00014      0.009900980  81
 contour:      0.30693      0.00014      0.009900980  82
 contour:      0.31683      0.00014      0.009900980  83
 contour:      0.32673      0.00014      0.009900980  84
 contour:      0.33663      0.00014      0.009900980  85
 contour:      0.34653      0.00014      0.009900980  86
 contour:      0.35644      0.00014      0.009900980  87
 contour:      0.36634      0.00014      0.009900980  88
 contour:      0.37624      0.00014      0.009900980  89
 contour:      0.38614      0.00014      0.009900980  90
 contour:      0.39604      0.00014      0.009900980  91
 contour:      0.40594      0.00014      0.009900980  92
 contour:      0.41584      0.00014      0.009900980  93
 contour:      0.42574      0.00014      0.009900980  94
 contour:      0.43564      0.00014      0.009900980  95
 contour:      0.44554      0.00014      0.009900980  96
 contour:      0.45545      0.00014      0.009900980  97
 contour:      0.46535      0.00014      0.009900980  98
 contour:      0.47525      0.00014      0.009900980  99
 contour:      0.48515      0.00014      0.009900980 100
 contour:      0.49505      0.00014      0.009900980 101
 WARNING !!!!
 Number of Nodes greater than number of k-Points !!
 Some nodes will be innactive in k-point parallelization !!

************************************************************************
 K-Points On Nodes:

 Node  Numb. K Pts.  Tot. K Pts. 
  0        0            4
  1        1            4
  2        1            4
  3        1            4
  4        1            4
  5        0            4
  6        0            4
  7        0            4
------------------------------------------------------------------------
 K-Points Coordinates and Weights (Node,kx,ky,kz,wk),:

        1     0.00000     0.00000     0.00000     0.25000
        2     0.19217     0.00000     0.00000     0.25000
        3     0.00000     0.19217     0.00000     0.25000
        4     0.19217     0.19217     0.00000     0.25000
************************************************************************

 unit cell:
 16.3483  0.0000  0.0000
  0.0000 16.3483  0.0000
  0.0000  0.0000 15.4134
 unit cell:
 16.3483  0.0000  0.0000
  0.0000 16.3483  0.0000
  0.0000  0.0000 15.4134
 ==============================================================
  Projection Region: atoms : [        37;        76]
  Projection Region: states: [         1;       360] Tot:       360

  Starting K-Point loop for spin:   1

 Transport for spin ->  1  , kxy-point ->   1, of Node     1
           kxy=(0.000 0.000 0.000 ),w= 0.2500
    E           T(E)            TotDOS         PDOS
 -0.49505  0.17215689E+01  0.14048316E+03  0.14048316E+03
 -0.48515  0.17322766E+01  0.14042296E+03  0.14042296E+03
 -0.47525  0.17428476E+01  0.14036338E+03  0.14036338E+03
 -0.46535  0.17532758E+01  0.14030434E+03  0.14030434E+03
 -0.45545  0.17635553E+01  0.14024573E+03  0.14024573E+03
 -0.44554  0.17736801E+01  0.14018747E+03  0.14018747E+03
 -0.43564  0.17836445E+01  0.14012947E+03  0.14012947E+03
 -0.42574  0.17934428E+01  0.14007165E+03  0.14007165E+03
 -0.41584  0.18030694E+01  0.14001394E+03  0.14001394E+03
 -0.40594  0.18125188E+01  0.13995626E+03  0.13995626E+03
 -0.39604  0.18217856E+01  0.13989855E+03  0.13989855E+03
 -0.38614  0.18308648E+01  0.13984074E+03  0.13984074E+03
 -0.37624  0.18397511E+01  0.13978278E+03  0.13978278E+03
 -0.36634  0.18484398E+01  0.13972461E+03  0.13972461E+03
 -0.35644  0.18569260E+01  0.13966618E+03  0.13966618E+03
 -0.34653  0.18652052E+01  0.13960744E+03  0.13960744E+03
 -0.33663  0.18732731E+01  0.13954836E+03  0.13954836E+03
 -0.32673  0.18811254E+01  0.13948890E+03  0.13948890E+03
 -0.31683  0.18887582E+01  0.13942902E+03  0.13942902E+03
 -0.30693  0.18961676E+01  0.13936869E+03  0.13936869E+03
 -0.29703  0.19033501E+01  0.13930789E+03  0.13930789E+03
 -0.28713  0.19103023E+01  0.13924659E+03  0.13924659E+03
 -0.27723  0.19170211E+01  0.13918478E+03  0.13918478E+03
 -0.26733  0.19235036E+01  0.13912245E+03  0.13912245E+03
 -0.25743  0.19297469E+01  0.13905957E+03  0.13905957E+03
 -0.24752  0.19357487E+01  0.13899615E+03  0.13899615E+03
 -0.23762  0.19415066E+01  0.13893218E+03  0.13893218E+03
 -0.22772  0.19470187E+01  0.13886766E+03  0.13886766E+03
 -0.21782  0.19522831E+01  0.13880260E+03  0.13880260E+03
 -0.20792  0.19572983E+01  0.13873699E+03  0.13873699E+03
 -0.19802  0.19620628E+01  0.13867085E+03  0.13867085E+03
 -0.18812  0.19665756E+01  0.13860419E+03  0.13860419E+03
 -0.17822  0.19708357E+01  0.13853702E+03  0.13853702E+03
 -0.16832  0.19748425E+01  0.13846937E+03  0.13846937E+03
 -0.15842  0.19785954E+01  0.13840126E+03  0.13840126E+03
 -0.14851  0.19820941E+01  0.13833270E+03  0.13833270E+03
 -0.13861  0.19853386E+01  0.13826373E+03  0.13826373E+03
 -0.12871  0.19883290E+01  0.13819438E+03  0.13819438E+03
 -0.11881  0.19910655E+01  0.13812467E+03  0.13812467E+03
 -0.10891  0.19935487E+01  0.13805465E+03  0.13805465E+03
 -0.09901  0.19957791E+01  0.13798435E+03  0.13798435E+03
 -0.08911  0.19977577E+01  0.13791380E+03  0.13791380E+03
 -0.07921  0.19994854E+01  0.13784306E+03  0.13784306E+03
 -0.06931  0.20009633E+01  0.13777216E+03  0.13777216E+03
 -0.05941  0.20021926E+01  0.13770114E+03  0.13770114E+03
 -0.04950  0.20031749E+01  0.13763007E+03  0.13763007E+03
 -0.03960  0.20039116E+01  0.13755898E+03  0.13755898E+03
 -0.02970  0.20044044E+01  0.13748794E+03  0.13748794E+03
 -0.01980  0.20046550E+01  0.13741699E+03  0.13741699E+03
 -0.00990  0.20046653E+01  0.13734618E+03  0.13734618E+03
 -0.00000  0.20044371E+01  0.13727558E+03  0.13727558E+03
  0.00990  0.20039725E+01  0.13720525E+03  0.13720525E+03
  0.01980  0.20032735E+01  0.13713524E+03  0.13713524E+03
  0.02970  0.20023423E+01  0.13706561E+03  0.13706561E+03
  0.03960  0.20011811E+01  0.13699644E+03  0.13699644E+03
  0.04950  0.19997920E+01  0.13692777E+03  0.13692777E+03
  0.05941  0.19981772E+01  0.13685969E+03  0.13685969E+03
  0.06931  0.19963391E+01  0.13679225E+03  0.13679225E+03
  0.07921  0.19942798E+01  0.13672553E+03  0.13672553E+03
  0.08911  0.19920016E+01  0.13665959E+03  0.13665959E+03
  0.09901  0.19895068E+01  0.13659450E+03  0.13659450E+03
  0.10891  0.19867976E+01  0.13653033E+03  0.13653033E+03
  0.11881  0.19838761E+01  0.13646716E+03  0.13646716E+03
  0.12871  0.19807446E+01  0.13640505E+03  0.13640505E+03
  0.13861  0.19774051E+01  0.13634409E+03  0.13634409E+03
  0.14851  0.19738597E+01  0.13628434E+03  0.13628434E+03
  0.15842  0.19701103E+01  0.13622587E+03  0.13622587E+03
  0.16832  0.19661591E+01  0.13616877E+03  0.13616877E+03
  0.17822  0.19620077E+01  0.13611311E+03  0.13611311E+03
  0.18812  0.19576579E+01  0.13605896E+03  0.13605896E+03
  0.19802  0.19531116E+01  0.13600639E+03  0.13600639E+03
  0.20792  0.19483702E+01  0.13595549E+03  0.13595549E+03
  0.21782  0.19434354E+01  0.13590633E+03  0.13590633E+03
  0.22772  0.19383084E+01  0.13585897E+03  0.13585897E+03
  0.23762  0.19329906E+01  0.13581351E+03  0.13581351E+03
  0.24752  0.19274833E+01  0.13577001E+03  0.13577001E+03
  0.25743  0.19217875E+01  0.13572854E+03  0.13572854E+03
  0.26733  0.19159042E+01  0.13568918E+03  0.13568918E+03
  0.27723  0.19098342E+01  0.13565200E+03  0.13565200E+03
  0.28713  0.19035784E+01  0.13561707E+03  0.13561707E+03
  0.29703  0.18971373E+01  0.13558446E+03  0.13558446E+03
  0.30693  0.18905114E+01  0.13555424E+03  0.13555424E+03
  0.31683  0.18837013E+01  0.13552647E+03  0.13552647E+03
  0.32673  0.18767071E+01  0.13550122E+03  0.13550122E+03
  0.33663  0.18695291E+01  0.13547855E+03  0.13547855E+03
  0.34653  0.18621672E+01  0.13545852E+03  0.13545852E+03
  0.35644  0.18546215E+01  0.13544119E+03  0.13544119E+03
  0.36634  0.18468919E+01  0.13542660E+03  0.13542660E+03
  0.37624  0.18389781E+01  0.13541483E+03  0.13541483E+03
  0.38614  0.18308797E+01  0.13540590E+03  0.13540590E+03
  0.39604  0.18225964E+01  0.13539986E+03  0.13539986E+03
  0.40594  0.18141276E+01  0.13539676E+03  0.13539676E+03
  0.41584  0.18054729E+01  0.13539662E+03  0.13539662E+03
  0.42574  0.17966316E+01  0.13539948E+03  0.13539948E+03
  0.43564  0.17876030E+01  0.13540536E+03  0.13540536E+03
  0.44554  0.17783865E+01  0.13541427E+03  0.13541427E+03
  0.45545  0.17689814E+01  0.13542624E+03  0.13542624E+03
  0.46535  0.17593869E+01  0.13544126E+03  0.13544126E+03
  0.47525  0.17496023E+01  0.13545933E+03  0.13545933E+03
  0.48515  0.17396269E+01  0.13548044E+03  0.13548044E+03
  0.49505  0.17294601E+01  0.13550457E+03  0.13550457E+03
 Transport for spin ->  1  , kxy-point ->   1, of Node     2
           kxy=(0.192 0.000 0.000 ),w= 0.2500
    E           T(E)            TotDOS         PDOS
 -0.49505  0.14960825E+01  0.16432981E+03  0.16432981E+03
 -0.48515  0.15191475E+01  0.15943427E+03  0.15943427E+03
 -0.47525  0.15351701E+01  0.14658301E+03  0.14658301E+03
 -0.46535  0.15484333E+01  0.13166342E+03  0.13166342E+03
 -0.45545  0.15607150E+01  0.13207296E+03  0.13207296E+03
 -0.44554  0.15727503E+01  0.13277926E+03  0.13277926E+03
 -0.43564  0.15848066E+01  0.13380781E+03  0.13380781E+03
 -0.42574  0.15973231E+01  0.13550998E+03  0.13550998E+03
 -0.41584  0.16116140E+01  0.13958305E+03  0.13958305E+03
 -0.40594  0.16356321E+01  0.16432608E+03  0.16432608E+03
 -0.39604  0.15368914E+01  0.56027005E+03  0.56027005E+03
 -0.38614  0.16139088E+01  0.15002756E+03  0.15002756E+03
 -0.37624  0.16300638E+01  0.14155194E+03  0.14155194E+03
 -0.36634  0.16413780E+01  0.14038016E+03  0.14038016E+03
 -0.35644  0.16509646E+01  0.14059170E+03  0.14059170E+03
 -0.34653  0.16595204E+01  0.14128035E+03  0.14128035E+03
 -0.33663  0.16672601E+01  0.14219891E+03  0.14219891E+03
 -0.32673  0.16742423E+01  0.14325470E+03  0.14325470E+03
 -0.31683  0.16804557E+01  0.14440200E+03  0.14440200E+03
 -0.30693  0.16858417E+01  0.14560958E+03  0.14560958E+03
 -0.29703  0.16902936E+01  0.14684705E+03  0.14684705E+03
 -0.28713  0.16936245E+01  0.14807729E+03  0.14807729E+03
 -0.27723  0.16954503E+01  0.14925461E+03  0.14925461E+03
 -0.26733  0.16946087E+01  0.15036293E+03  0.15036293E+03
 -0.25743  0.16816316E+01  0.15212285E+03  0.15212285E+03
 -0.24752  0.17217470E+01  0.14653467E+03  0.14653467E+03
 -0.23762  0.17050106E+01  0.14561911E+03  0.14561911E+03
 -0.22772  0.16969214E+01  0.13729856E+03  0.13729856E+03
 -0.21782  0.16874624E+01  0.11828382E+03  0.11828382E+03
 -0.20792  0.16778344E+01  0.12046592E+03  0.12046592E+03
 -0.19802  0.16664954E+01  0.12372329E+03  0.12372329E+03
 -0.18812  0.16545161E+01  0.13035398E+03  0.13035398E+03
 -0.17822  0.16545305E+01  0.17840871E+03  0.17840871E+03
 -0.16832  0.15635133E+01  0.22923787E+03  0.22923787E+03
 -0.15842  0.15589062E+01  0.14342552E+03  0.14342552E+03
 -0.14851  0.15286762E+01  0.14170403E+03  0.14170403E+03
 -0.13861  0.14891218E+01  0.14502795E+03  0.14502795E+03
 -0.12871  0.14412362E+01  0.15001222E+03  0.15001222E+03
 -0.11881  0.13848490E+01  0.15605665E+03  0.15605665E+03
 -0.10891  0.13198947E+01  0.16295207E+03  0.16295207E+03
 -0.09901  0.12469781E+01  0.17051426E+03  0.17051426E+03
 -0.08911  0.11679098E+01  0.17846379E+03  0.17846379E+03
 -0.07921  0.10862155E+01  0.18636459E+03  0.18636459E+03
 -0.06931  0.10074011E+01  0.19360959E+03  0.19360959E+03
 -0.05941  0.93861364E+00  0.19947843E+03  0.19947843E+03
 -0.04950  0.88741901E+00  0.20328305E+03  0.20328305E+03
 -0.03960  0.85986133E+00  0.20456813E+03  0.20456813E+03
 -0.02970  0.85860648E+00  0.20327475E+03  0.20327475E+03
 -0.01980  0.88218969E+00  0.19977130E+03  0.19977130E+03
 -0.00990  0.92578335E+00  0.19473191E+03  0.19473191E+03
 -0.00000  0.98294551E+00  0.18893791E+03  0.18893791E+03
  0.00990  0.10473765E+01  0.18310527E+03  0.18310527E+03
  0.01980  0.11140267E+01  0.17779456E+03  0.17779456E+03
  0.02970  0.11794637E+01  0.17339997E+03  0.17339997E+03
  0.03960  0.12417438E+01  0.17018476E+03  0.17018476E+03
  0.04950  0.13000799E+01  0.16833178E+03  0.16833178E+03
  0.05941  0.13544930E+01  0.16799082E+03  0.16799082E+03
  0.06931  0.14055303E+01  0.16931495E+03  0.16931495E+03
  0.07921  0.14540579E+01  0.17248283E+03  0.17248283E+03
  0.08911  0.15011001E+01  0.17770180E+03  0.17770180E+03
  0.09901  0.15476710E+01  0.18517925E+03  0.18517925E+03
  0.10891  0.15945208E+01  0.19503642E+03  0.19503642E+03
  0.11881  0.16417015E+01  0.20712607E+03  0.20712607E+03
  0.12871  0.16878995E+01  0.22072750E+03  0.22072750E+03
  0.13861  0.17297159E+01  0.23419097E+03  0.23419097E+03
  0.14851  0.17615978E+01  0.24484336E+03  0.24484336E+03
  0.15842  0.17774750E+01  0.24966010E+03  0.24966010E+03
  0.16832  0.17740632E+01  0.24675714E+03  0.24675714E+03
  0.17822  0.17533100E+01  0.23660660E+03  0.23660660E+03
  0.18812  0.17213466E+01  0.22170166E+03  0.22170166E+03
  0.19802  0.16850342E+01  0.20504065E+03  0.20504065E+03
  0.20792  0.16493370E+01  0.18888337E+03  0.18888337E+03
  0.21782  0.16167792E+01  0.17442805E+03  0.17442805E+03
  0.22772  0.15881118E+01  0.16206524E+03  0.16206524E+03
  0.23762  0.15631419E+01  0.15173744E+03  0.15173744E+03
  0.24752  0.15413040E+01  0.14319884E+03  0.14319884E+03
  0.25743  0.15219620E+01  0.13615762E+03  0.13615762E+03
  0.26733  0.15045368E+01  0.13033984E+03  0.13033984E+03
  0.27723  0.14885464E+01  0.12551164E+03  0.12551164E+03
  0.28713  0.14736053E+01  0.12148229E+03  0.12148229E+03
  0.29703  0.14594107E+01  0.11810000E+03  0.11810000E+03
  0.30693  0.14457223E+01  0.11524612E+03  0.11524612E+03
  0.31683  0.14323364E+01  0.11283154E+03  0.11283154E+03
  0.32673  0.14190017E+01  0.11081824E+03  0.11081824E+03
  0.33663  0.14059864E+01  0.11395478E+03  0.11395478E+03
  0.34653  0.13935294E+01  0.11525530E+03  0.11525530E+03
  0.35644  0.13810347E+01  0.11590111E+03  0.11590111E+03
  0.36634  0.13684741E+01  0.11632486E+03  0.11632486E+03
  0.37624  0.13558212E+01  0.11665280E+03  0.11665280E+03
  0.38614  0.13430558E+01  0.11693694E+03  0.11693694E+03
  0.39604  0.13301633E+01  0.11720192E+03  0.11720192E+03
  0.40594  0.13171335E+01  0.11746024E+03  0.11746024E+03
  0.41584  0.13039601E+01  0.11771834E+03  0.11771834E+03
  0.42574  0.12906393E+01  0.11797954E+03  0.11797954E+03
  0.43564  0.12771700E+01  0.11824541E+03  0.11824541E+03
  0.44554  0.12635524E+01  0.11851654E+03  0.11851654E+03
  0.45545  0.12497886E+01  0.11879304E+03  0.11879304E+03
  0.46535  0.12358816E+01  0.11907470E+03  0.11907470E+03
  0.47525  0.12218352E+01  0.11936123E+03  0.11936123E+03
  0.48515  0.12076540E+01  0.11965228E+03  0.11965228E+03
  0.49505  0.11933427E+01  0.11994753E+03  0.11994753E+03
 Transport for spin ->  1  , kxy-point ->   1, of Node     3
           kxy=(0.000 0.192 0.000 ),w= 0.2500
    E           T(E)            TotDOS         PDOS
 -0.49505  0.14960825E+01  0.16432981E+03  0.16432981E+03
 -0.48515  0.15191475E+01  0.15943427E+03  0.15943427E+03
 -0.47525  0.15351701E+01  0.14658301E+03  0.14658301E+03
 -0.46535  0.15484333E+01  0.13166342E+03  0.13166342E+03
 -0.45545  0.15607150E+01  0.13207297E+03  0.13207297E+03
 -0.44554  0.15727503E+01  0.13277926E+03  0.13277926E+03
 -0.43564  0.15848066E+01  0.13380781E+03  0.13380781E+03
 -0.42574  0.15973231E+01  0.13550998E+03  0.13550998E+03
 -0.41584  0.16116140E+01  0.13958305E+03  0.13958305E+03
 -0.40594  0.16356321E+01  0.16432607E+03  0.16432607E+03
 -0.39604  0.15368913E+01  0.56027067E+03  0.56027067E+03
 -0.38614  0.16139088E+01  0.15002757E+03  0.15002757E+03
 -0.37624  0.16300638E+01  0.14155194E+03  0.14155194E+03
 -0.36634  0.16413780E+01  0.14038016E+03  0.14038016E+03
 -0.35644  0.16509646E+01  0.14059170E+03  0.14059170E+03
 -0.34653  0.16595204E+01  0.14128035E+03  0.14128035E+03
 -0.33663  0.16672601E+01  0.14219891E+03  0.14219891E+03
 -0.32673  0.16742423E+01  0.14325470E+03  0.14325470E+03
 -0.31683  0.16804557E+01  0.14440200E+03  0.14440200E+03
 -0.30693  0.16858417E+01  0.14560958E+03  0.14560958E+03
 -0.29703  0.16902936E+01  0.14684705E+03  0.14684705E+03
 -0.28713  0.16936245E+01  0.14807729E+03  0.14807729E+03
 -0.27723  0.16954504E+01  0.14925461E+03  0.14925461E+03
 -0.26733  0.16946087E+01  0.15036293E+03  0.15036293E+03
 -0.25743  0.16816316E+01  0.15212285E+03  0.15212285E+03
 -0.24752  0.17217470E+01  0.14653467E+03  0.14653467E+03
 -0.23762  0.17050106E+01  0.14561910E+03  0.14561910E+03
 -0.22772  0.16969214E+01  0.13729856E+03  0.13729856E+03
 -0.21782  0.16874624E+01  0.11828382E+03  0.11828382E+03
 -0.20792  0.16778344E+01  0.12046592E+03  0.12046592E+03
 -0.19802  0.16664954E+01  0.12372329E+03  0.12372329E+03
 -0.18812  0.16545161E+01  0.13035398E+03  0.13035398E+03
 -0.17822  0.16545305E+01  0.17840868E+03  0.17840868E+03
 -0.16832  0.15635133E+01  0.22923794E+03  0.22923794E+03
 -0.15842  0.15589062E+01  0.14342552E+03  0.14342552E+03
 -0.14851  0.15286762E+01  0.14170403E+03  0.14170403E+03
 -0.13861  0.14891219E+01  0.14502795E+03  0.14502795E+03
 -0.12871  0.14412362E+01  0.15001221E+03  0.15001221E+03
 -0.11881  0.13848491E+01  0.15605664E+03  0.15605664E+03
 -0.10891  0.13198948E+01  0.16295207E+03  0.16295207E+03
 -0.09901  0.12469782E+01  0.17051425E+03  0.17051425E+03
 -0.08911  0.11679098E+01  0.17846378E+03  0.17846378E+03
 -0.07921  0.10862156E+01  0.18636459E+03  0.18636459E+03
 -0.06931  0.10074012E+01  0.19360959E+03  0.19360959E+03
 -0.05941  0.93861370E+00  0.19947842E+03  0.19947842E+03
 -0.04950  0.88741905E+00  0.20328305E+03  0.20328305E+03
 -0.03960  0.85986135E+00  0.20456813E+03  0.20456813E+03
 -0.02970  0.85860648E+00  0.20327475E+03  0.20327475E+03
 -0.01980  0.88218967E+00  0.19977130E+03  0.19977130E+03
 -0.00990  0.92578332E+00  0.19473192E+03  0.19473192E+03
 -0.00000  0.98294547E+00  0.18893792E+03  0.18893792E+03
  0.00990  0.10473765E+01  0.18310528E+03  0.18310528E+03
  0.01980  0.11140267E+01  0.17779456E+03  0.17779456E+03
  0.02970  0.11794636E+01  0.17339997E+03  0.17339997E+03
  0.03960  0.12417437E+01  0.17018476E+03  0.17018476E+03
  0.04950  0.13000798E+01  0.16833178E+03  0.16833178E+03
  0.05941  0.13544930E+01  0.16799082E+03  0.16799082E+03
  0.06931  0.14055303E+01  0.16931495E+03  0.16931495E+03
  0.07921  0.14540579E+01  0.17248282E+03  0.17248282E+03
  0.08911  0.15011000E+01  0.17770179E+03  0.17770179E+03
  0.09901  0.15476710E+01  0.18517924E+03  0.18517924E+03
  0.10891  0.15945208E+01  0.19503641E+03  0.19503641E+03
  0.11881  0.16417015E+01  0.20712606E+03  0.20712606E+03
  0.12871  0.16878995E+01  0.22072749E+03  0.22072749E+03
  0.13861  0.17297159E+01  0.23419096E+03  0.23419096E+03
  0.14851  0.17615978E+01  0.24484336E+03  0.24484336E+03
  0.15842  0.17774750E+01  0.24966010E+03  0.24966010E+03
  0.16832  0.17740632E+01  0.24675714E+03  0.24675714E+03
  0.17822  0.17533101E+01  0.23660661E+03  0.23660661E+03
  0.18812  0.17213466E+01  0.22170167E+03  0.22170167E+03
  0.19802  0.16850343E+01  0.20504066E+03  0.20504066E+03
  0.20792  0.16493370E+01  0.18888338E+03  0.18888338E+03
  0.21782  0.16167792E+01  0.17442806E+03  0.17442806E+03
  0.22772  0.15881118E+01  0.16206524E+03  0.16206524E+03
  0.23762  0.15631419E+01  0.15173744E+03  0.15173744E+03
  0.24752  0.15413040E+01  0.14319884E+03  0.14319884E+03
  0.25743  0.15219620E+01  0.13615762E+03  0.13615762E+03
  0.26733  0.15045368E+01  0.13033985E+03  0.13033985E+03
  0.27723  0.14885464E+01  0.12551164E+03  0.12551164E+03
  0.28713  0.14736053E+01  0.12148229E+03  0.12148229E+03
  0.29703  0.14594107E+01  0.11810000E+03  0.11810000E+03
  0.30693  0.14457223E+01  0.11524612E+03  0.11524612E+03
  0.31683  0.14323364E+01  0.11283154E+03  0.11283154E+03
  0.32673  0.14190017E+01  0.11081824E+03  0.11081824E+03
  0.33663  0.14059864E+01  0.11395478E+03  0.11395478E+03
  0.34653  0.13935294E+01  0.11525530E+03  0.11525530E+03
  0.35644  0.13810347E+01  0.11590111E+03  0.11590111E+03
  0.36634  0.13684741E+01  0.11632486E+03  0.11632486E+03
  0.37624  0.13558212E+01  0.11665280E+03  0.11665280E+03
  0.38614  0.13430558E+01  0.11693694E+03  0.11693694E+03
  0.39604  0.13301633E+01  0.11720192E+03  0.11720192E+03
  0.40594  0.13171335E+01  0.11746024E+03  0.11746024E+03
  0.41584  0.13039601E+01  0.11771834E+03  0.11771834E+03
  0.42574  0.12906393E+01  0.11797954E+03  0.11797954E+03
  0.43564  0.12771699E+01  0.11824541E+03  0.11824541E+03
  0.44554  0.12635524E+01  0.11851654E+03  0.11851654E+03
  0.45545  0.12497886E+01  0.11879304E+03  0.11879304E+03
  0.46535  0.12358816E+01  0.11907470E+03  0.11907470E+03
  0.47525  0.12218352E+01  0.11936123E+03  0.11936123E+03
  0.48515  0.12076540E+01  0.11965228E+03  0.11965228E+03
  0.49505  0.11933427E+01  0.11994753E+03  0.11994753E+03
 Transport for spin ->  1  , kxy-point ->   1, of Node     4
           kxy=(0.192 0.192 0.000 ),w= 0.2500
    E           T(E)            TotDOS         PDOS
 -0.49505  0.15288306E+01  0.75080958E+02  0.75080958E+02
 -0.48515  0.15446280E+01  0.75149705E+02  0.75149705E+02
 -0.47525  0.15602575E+01  0.75222538E+02  0.75222538E+02
 -0.46535  0.15756965E+01  0.75299814E+02  0.75299814E+02
 -0.45545  0.15909226E+01  0.75381988E+02  0.75381988E+02
 -0.44554  0.16059128E+01  0.75469634E+02  0.75469634E+02
 -0.43564  0.16206436E+01  0.75563464E+02  0.75563464E+02
 -0.42574  0.16350913E+01  0.75664369E+02  0.75664369E+02
 -0.41584  0.16492311E+01  0.75773451E+02  0.75773451E+02
 -0.40594  0.16630374E+01  0.75892091E+02  0.75892091E+02
 -0.39604  0.16764832E+01  0.76022022E+02  0.76022022E+02
 -0.38614  0.16895394E+01  0.76165446E+02  0.76165446E+02
 -0.37624  0.17021739E+01  0.76325202E+02  0.76325202E+02
 -0.36634  0.17143502E+01  0.76505022E+02  0.76505022E+02
 -0.35644  0.17260249E+01  0.76709929E+02  0.76709929E+02
 -0.34653  0.17371442E+01  0.76946903E+02  0.76946903E+02
 -0.33663  0.17476368E+01  0.77226045E+02  0.77226045E+02
 -0.32673  0.17574020E+01  0.77562794E+02  0.77562794E+02
 -0.31683  0.17662830E+01  0.77982592E+02  0.77982592E+02
 -0.30693  0.17740068E+01  0.78532296E+02  0.78532296E+02
 -0.29703  0.17800007E+01  0.79315588E+02  0.79315588E+02
 -0.28713  0.17825505E+01  0.80669453E+02  0.80669453E+02
 -0.27723  0.17555537E+01  0.10664600E+03  0.10664600E+03
 -0.26733  0.17461625E+01  0.13542753E+03  0.13542753E+03
 -0.25743  0.17467989E+01  0.15033520E+03  0.15033520E+03
 -0.24752  0.17506059E+01  0.16063904E+03  0.16063904E+03
 -0.23762  0.17560569E+01  0.16840002E+03  0.16840002E+03
 -0.22772  0.17624838E+01  0.17451289E+03  0.17451289E+03
 -0.21782  0.17695155E+01  0.17946655E+03  0.17946655E+03
 -0.20792  0.17769159E+01  0.18356346E+03  0.18356346E+03
 -0.19802  0.17845203E+01  0.18700602E+03  0.18700602E+03
 -0.18812  0.17922057E+01  0.18993721E+03  0.18993721E+03
 -0.17822  0.17998744E+01  0.19246218E+03  0.19246218E+03
 -0.16832  0.18074448E+01  0.19466077E+03  0.19466077E+03
 -0.15842  0.18148452E+01  0.19659523E+03  0.19659523E+03
 -0.14851  0.18220095E+01  0.19831526E+03  0.19831526E+03
 -0.13861  0.18288732E+01  0.19986159E+03  0.19986159E+03
 -0.12871  0.18353703E+01  0.20126844E+03  0.20126844E+03
 -0.11881  0.18414289E+01  0.20256563E+03  0.20256563E+03
 -0.10891  0.18469659E+01  0.20378030E+03  0.20378030E+03
 -0.09901  0.18518792E+01  0.20493879E+03  0.20493879E+03
 -0.08911  0.18560337E+01  0.20606896E+03  0.20606896E+03
 -0.07921  0.18592377E+01  0.20720379E+03  0.20720379E+03
 -0.06931  0.18611931E+01  0.20838818E+03  0.20838818E+03
 -0.05941  0.18613833E+01  0.20969436E+03  0.20969436E+03
 -0.04950  0.18587557E+01  0.21126586E+03  0.21126586E+03
 -0.03960  0.18504541E+01  0.21350266E+03  0.21350266E+03
 -0.02970  0.18152740E+01  0.22038515E+03  0.22038515E+03
 -0.01980  0.17985195E+01  0.28200773E+03  0.28200773E+03
 -0.00990  0.18103797E+01  0.30210639E+03  0.30210639E+03
 -0.00000  0.18234247E+01  0.31440985E+03  0.31440985E+03
  0.00990  0.18366999E+01  0.32290034E+03  0.32290034E+03
  0.01980  0.18498993E+01  0.32911772E+03  0.32911772E+03
  0.02970  0.18628872E+01  0.33384481E+03  0.33384481E+03
  0.03960  0.18755887E+01  0.33753748E+03  0.33753748E+03
  0.04950  0.18879540E+01  0.34048387E+03  0.34048387E+03
  0.05941  0.18999438E+01  0.34287644E+03  0.34287644E+03
  0.06931  0.19115234E+01  0.34484884E+03  0.34484884E+03
  0.07921  0.19226589E+01  0.34649666E+03  0.34649666E+03
  0.08911  0.19333164E+01  0.34788979E+03  0.34788979E+03
  0.09901  0.19434607E+01  0.34908021E+03  0.34908021E+03
  0.10891  0.19530552E+01  0.35010709E+03  0.35010709E+03
  0.11881  0.19620613E+01  0.35100022E+03  0.35100022E+03
  0.12871  0.19704391E+01  0.35178243E+03  0.35178243E+03
  0.13861  0.19781468E+01  0.35247126E+03  0.35247126E+03
  0.14851  0.19851413E+01  0.35308021E+03  0.35308021E+03
  0.15842  0.19913780E+01  0.35361965E+03  0.35361965E+03
  0.16832  0.19968112E+01  0.35409749E+03  0.35409749E+03
  0.17822  0.20013944E+01  0.35451971E+03  0.35451971E+03
  0.18812  0.20050805E+01  0.35489073E+03  0.35489073E+03
  0.19802  0.20078222E+01  0.35521378E+03  0.35521378E+03
  0.20792  0.20095721E+01  0.35549106E+03  0.35549106E+03
  0.21782  0.20102835E+01  0.35572400E+03  0.35572400E+03
  0.22772  0.20099107E+01  0.35591338E+03  0.35591338E+03
  0.23762  0.20084091E+01  0.35605950E+03  0.35605950E+03
  0.24752  0.20057361E+01  0.35616221E+03  0.35616221E+03
  0.25743  0.20018514E+01  0.35622108E+03  0.35622108E+03
  0.26733  0.19967176E+01  0.35623539E+03  0.35623539E+03
  0.27723  0.19903007E+01  0.35620426E+03  0.35620426E+03
  0.28713  0.19825704E+01  0.35612668E+03  0.35612668E+03
  0.29703  0.19735009E+01  0.35600152E+03  0.35600152E+03
  0.30693  0.19630714E+01  0.35582759E+03  0.35582759E+03
  0.31683  0.19512667E+01  0.35560375E+03  0.35560375E+03
  0.32673  0.19380769E+01  0.35532877E+03  0.35532877E+03
  0.33663  0.19234986E+01  0.35500151E+03  0.35500151E+03
  0.34653  0.19075351E+01  0.35462087E+03  0.35462087E+03
  0.35644  0.18901966E+01  0.35418583E+03  0.35418583E+03
  0.36634  0.18715001E+01  0.35369546E+03  0.35369546E+03
  0.37624  0.18514701E+01  0.35314892E+03  0.35314892E+03
  0.38614  0.18301382E+01  0.35254551E+03  0.35254551E+03
  0.39604  0.18075433E+01  0.35188464E+03  0.35188464E+03
  0.40594  0.17837315E+01  0.35116586E+03  0.35116586E+03
  0.41584  0.17587554E+01  0.35038886E+03  0.35038886E+03
  0.42574  0.17326745E+01  0.34955346E+03  0.34955346E+03
  0.43564  0.17055542E+01  0.34865967E+03  0.34865967E+03
  0.44554  0.16774656E+01  0.34770755E+03  0.34770755E+03
  0.45545  0.16484847E+01  0.34669742E+03  0.34669742E+03
  0.46535  0.16186921E+01  0.34562967E+03  0.34562967E+03
  0.47525  0.15881720E+01  0.34450485E+03  0.34450485E+03
  0.48515  0.15570115E+01  0.34332362E+03  0.34332362E+03
  0.49505  0.15252999E+01  0.34208680E+03  0.34208680E+03
 ==============================================================

 Results:

  Voltage, Current(A) =   2.50000000E-01  1.50119254E-05

 ==============================================================
