
                           ***********************       
                           *  WELCOME TO TBTRANS *       
                           ***********************       

reinit: Reading from standard input
************************** Dump of input data file ****************************
SolutionMethod        Transiesta
SystemName  Au 100 with gold chain
SystemLabel au_100
==================================================
==================================================
# SPECIES AND BASIS
# Number of species
NumberOfSpecies 1
%block ChemicalSpeciesLabel
  1  79 Au
%endblock ChemicalSpeciesLabel
PAO.BasisSize    SZP
PAO.EnergyShift  0.005 Ry
XC.functional   GGA
XC.authors      PBE
==================================================
==================================================
# K-points
%block kgrid_Monkhorst_Pack
 2    0    0    0.0
 0    2    0    0.0
 0    0    2    0.0
%endblock kgrid_Monkhorst_Pack
==================================================
==================================================
# Structure
NumberOfAtoms 112
LatticeConstant 1.0 Ang
%block LatticeVectors
     8.651160000      0.000000000      0.000000000
     0.000000000      8.651160000      0.000000000
     0.000000000      0.000000000     32.625600000
%endblock LatticeVectors
AtomicCoordinatesFormat  Ang
%block AtomicCoordinatesAndAtomicSpecies
     0.000000000      0.000000000      0.000000000 1 # 1. layer
     2.883720000      0.000000000      0.000000000 1
     5.767440000      0.000000000      0.000000000 1
     0.000000000      2.883720000      0.000000000 1
     2.883720000      2.883720000      0.000000000 1
     5.767440000      2.883720000      0.000000000 1
     0.000000000      5.767440000      0.000000000 1
     2.883720000      5.767440000      0.000000000 1
     5.767440000      5.767440000      0.000000000 1
     1.441860000      1.441860000      2.039100000 1 # 2. layer
     4.325580000      1.441860000      2.039100000 1
     7.209300000      1.441860000      2.039100000 1
     1.441860000      4.325580000      2.039100000 1
     4.325580000      4.325580000      2.039100000 1
     7.209300000      4.325580000      2.039100000 1
     1.441860000      7.209300000      2.039100000 1
     4.325580000      7.209300000      2.039100000 1
     7.209300000      7.209300000      2.039100000 1
     0.000000000      0.000000000      4.078200000 1 # 3. layer
     2.883720000      0.000000000      4.078200000 1
     5.767440000      0.000000000      4.078200000 1
     0.000000000      2.883720000      4.078200000 1
     2.883720000      2.883720000      4.078200000 1
     5.767440000      2.883720000      4.078200000 1
     0.000000000      5.767440000      4.078200000 1
     2.883720000      5.767440000      4.078200000 1
     5.767440000      5.767440000      4.078200000 1
     1.441860000      1.441860000      6.117300000 1 # 4. layer
     4.325580000      1.441860000      6.117300000 1
     7.209300000      1.441860000      6.117300000 1
     1.441860000      4.325580000      6.117300000 1
     4.325580000      4.325580000      6.117300000 1
     7.209300000      4.325580000      6.117300000 1
     1.441860000      7.209300000      6.117300000 1
     4.325580000      7.209300000      6.117300000 1
     7.209300000      7.209300000      6.117300000 1
     0.000000000      0.000000000      8.156400000 1 # 5. layer
     2.883720000      0.000000000      8.156400000 1
     5.767440000      0.000000000      8.156400000 1
     0.000000000      2.883720000      8.156400000 1
     2.883720000      2.883720000      8.156400000 1
     5.767440000      2.883720000      8.156400000 1
     0.000000000      5.767440000      8.156400000 1
     2.883720000      5.767440000      8.156400000 1
     5.767440000      5.767440000      8.156400000 1
     1.441860000      1.441860000     10.195500000 1 # 6. layer
     4.325580000      1.441860000     10.195500000 1
     7.209300000      1.441860000     10.195500000 1
     1.441860000      4.325580000     10.195500000 1
     4.325580000      4.325580000     10.195500000 1
     7.209300000      4.325580000     10.195500000 1
     1.441860000      7.209300000     10.195500000 1
     4.325580000      7.209300000     10.195500000 1
     7.209300000      7.209300000     10.195500000 1
     0.000000000      0.000000000     12.234600000 1 # 7. layer
     1.441860000      1.441860000     14.273700000 1 # 8. layer
     0.000000000      0.000000000     16.312800000 1 # 9. layer
     1.441860000      1.441860000     18.351900000 1 # 10. layer
     0.000000000      0.000000000     20.391000000 1 # 11. layer
     2.883720000      0.000000000     20.391000000 1
     5.767440000      0.000000000     20.391000000 1
     0.000000000      2.883720000     20.391000000 1
     2.883720000      2.883720000     20.391000000 1
     5.767440000      2.883720000     20.391000000 1
     0.000000000      5.767440000     20.391000000 1
     2.883720000      5.767440000     20.391000000 1
     5.767440000      5.767440000     20.391000000 1
     1.441860000      1.441860000     22.430100000 1 # 12. layer
     4.325580000      1.441860000     22.430100000 1
     7.209300000      1.441860000     22.430100000 1
     1.441860000      4.325580000     22.430100000 1
     4.325580000      4.325580000     22.430100000 1
     7.209300000      4.325580000     22.430100000 1
     1.441860000      7.209300000     22.430100000 1
     4.325580000      7.209300000     22.430100000 1
     7.209300000      7.209300000     22.430100000 1
     0.000000000      0.000000000     24.469200000 1 # 13. layer
     2.883720000      0.000000000     24.469200000 1
     5.767440000      0.000000000     24.469200000 1
     0.000000000      2.883720000     24.469200000 1
     2.883720000      2.883720000     24.469200000 1
     5.767440000      2.883720000     24.469200000 1
     0.000000000      5.767440000     24.469200000 1
     2.883720000      5.767440000     24.469200000 1
     5.767440000      5.767440000     24.469200000 1
     1.441860000      1.441860000     26.508300000 1 # 14. layer
     4.325580000      1.441860000     26.508300000 1
     7.209300000      1.441860000     26.508300000 1
     1.441860000      4.325580000     26.508300000 1
     4.325580000      4.325580000     26.508300000 1
     7.209300000      4.325580000     26.508300000 1
     1.441860000      7.209300000     26.508300000 1
     4.325580000      7.209300000     26.508300000 1
     7.209300000      7.209300000     26.508300000 1
     0.000000000      0.000000000     28.547400000 1 # 15. layer
     2.883720000      0.000000000     28.547400000 1
     5.767440000      0.000000000     28.547400000 1
     0.000000000      2.883720000     28.547400000 1
     2.883720000      2.883720000     28.547400000 1
     5.767440000      2.883720000     28.547400000 1
     0.000000000      5.767440000     28.547400000 1
     2.883720000      5.767440000     28.547400000 1
     5.767440000      5.767440000     28.547400000 1
     1.441860000      1.441860000     30.586500000 1 # 16. layer
     4.325580000      1.441860000     30.586500000 1
     7.209300000      1.441860000     30.586500000 1
     1.441860000      4.325580000     30.586500000 1
     4.325580000      4.325580000     30.586500000 1
     7.209300000      4.325580000     30.586500000 1
     1.441860000      7.209300000     30.586500000 1
     4.325580000      7.209300000     30.586500000 1
     7.209300000      7.209300000     30.586500000 1
%endblock AtomicCoordinatesAndAtomicSpecies
==================================================
==================================================
# SCF variables
DM.MixSCF1   T
MaxSCFIterations      300           # Maximum number of SCF iter
DM.MixingWeight       0.05          # New DM amount for next SCF cycle
DM.Tolerance          1.d-4         # Tolerance in maximum difference
DM.UseSaveDM          true          # to use continuation files
DM.NumberPulay        5
TS.MixH               yes
==================================================
==================================================
# MD variables
MD.FinalTimeStep 1
MD.TypeOfRun CG
MD.NumCGsteps     000
MD.UseSaveXV      .true.
==================================================
==================================================
# Output variables
WriteMullikenPop                1
WriteBands                      .false.
SaveRho                         .false.
SaveDeltaRho                    .false.
SaveHS                          .false.
SaveElectrostaticPotential      True
SaveTotalPotential              no
WriteCoorXmol                   .true.
WriteMDXmol                     .true.
WriteMDhistory                  .false.
WriteEigenvalues                yes
==================================================
==================================================
# Transmission
TS.TBT.NPoints      101
TS.TBT.Emin        -0.5 eV
TS.TBT.Emax         0.5 eV
TS.TBT.NEigen              9
# Bias voltage
TS.Voltage 0.25 eV
TS.biasContour.NumPoints       20
# Transiesta: electrode definition:
# LEFT ELECTRODE
TS.HSFileLeft ./elec_au_100.TSHS
TS.ReplicateA1Left    1
TS.ReplicateA2Left    1
TS.NumUsedAtomsLeft   36
TS.BufferAtomsLeft    0
# RIGHT ELECTRODE
TS.HSFileRight ./elec_au_100.TSHS
TS.ReplicateA1Right   1
TS.ReplicateA2Right   1
TS.NumUsedAtomsRight  36
TS.BufferAtomsRight   0
# SPECIES AND ATOMS
# DYNAMICS
TS.UseBulkInElectrodes  T
************************** End of input data file *****************************

reinit: -----------------------------------------------------------------------
reinit: System Name: Au 100 with gold chain
reinit: -----------------------------------------------------------------------
reinit: System Label: au_100                                                      
reinit: -----------------------------------------------------------------------
tbtrans: Voltage                         =     0.2500
Emin,Emax =      -0.499999      0.499999
Energy points in tbtrans =        101
tbtrans: Spin-polarized =  F
 contour:  Simple Line Contour:
 contour:     -0.03675      0.00001      0.000734980     0.000000000   1
 contour:     -0.03601      0.00001      0.000734980     0.000000000   2
 contour:     -0.03528      0.00001      0.000734980     0.000000000   3
 contour:     -0.03454      0.00001      0.000734980     0.000000000   4
 contour:     -0.03381      0.00001      0.000734980     0.000000000   5
 contour:     -0.03307      0.00001      0.000734980     0.000000000   6
 contour:     -0.03234      0.00001      0.000734980     0.000000000   7
 contour:     -0.03160      0.00001      0.000734980     0.000000000   8
 contour:     -0.03087      0.00001      0.000734980     0.000000000   9
 contour:     -0.03013      0.00001      0.000734980     0.000000000  10
 contour:     -0.02940      0.00001      0.000734980     0.000000000  11
 contour:     -0.02866      0.00001      0.000734980     0.000000000  12
 contour:     -0.02793      0.00001      0.000734980     0.000000000  13
 contour:     -0.02719      0.00001      0.000734980     0.000000000  14
 contour:     -0.02646      0.00001      0.000734980     0.000000000  15
 contour:     -0.02572      0.00001      0.000734980     0.000000000  16
 contour:     -0.02499      0.00001      0.000734980     0.000000000  17
 contour:     -0.02425      0.00001      0.000734980     0.000000000  18
 contour:     -0.02352      0.00001      0.000734980     0.000000000  19
 contour:     -0.02278      0.00001      0.000734980     0.000000000  20
 contour:     -0.02205      0.00001      0.000734980     0.000000000  21
 contour:     -0.02131      0.00001      0.000734980     0.000000000  22
 contour:     -0.02058      0.00001      0.000734980     0.000000000  23
 contour:     -0.01984      0.00001      0.000734980     0.000000000  24
 contour:     -0.01911      0.00001      0.000734980     0.000000000  25
 contour:     -0.01837      0.00001      0.000734980     0.000000000  26
 contour:     -0.01764      0.00001      0.000734980     0.000000000  27
 contour:     -0.01690      0.00001      0.000734980     0.000000000  28
 contour:     -0.01617      0.00001      0.000734980     0.000000000  29
 contour:     -0.01543      0.00001      0.000734980     0.000000000  30
 contour:     -0.01470      0.00001      0.000734980     0.000000000  31
 contour:     -0.01396      0.00001      0.000734980     0.000000000  32
 contour:     -0.01323      0.00001      0.000734980     0.000000000  33
 contour:     -0.01249      0.00001      0.000734980     0.000000000  34
 contour:     -0.01176      0.00001      0.000734980     0.000000000  35
 contour:     -0.01102      0.00001      0.000734980     0.000000000  36
 contour:     -0.01029      0.00001      0.000734980     0.000000000  37
 contour:     -0.00955      0.00001      0.000734980     0.000000000  38
 contour:     -0.00882      0.00001      0.000734980     0.000000000  39
 contour:     -0.00808      0.00001      0.000734980     0.000000000  40
 contour:     -0.00735      0.00001      0.000734980     0.000000000  41
 contour:     -0.00661      0.00001      0.000734980     0.000000000  42
 contour:     -0.00588      0.00001      0.000734980     0.000000000  43
 contour:     -0.00514      0.00001      0.000734980     0.000000000  44
 contour:     -0.00441      0.00001      0.000734980     0.000000000  45
 contour:     -0.00367      0.00001      0.000734980     0.000000000  46
 contour:     -0.00294      0.00001      0.000734980     0.000000000  47
 contour:     -0.00220      0.00001      0.000734980     0.000000000  48
 contour:     -0.00147      0.00001      0.000734980     0.000000000  49
 contour:     -0.00073      0.00001      0.000734980     0.000000000  50
 contour:      0.00000      0.00001      0.000734980     0.000000000  51
 contour:      0.00073      0.00001      0.000734980     0.000000000  52
 contour:      0.00147      0.00001      0.000734980     0.000000000  53
 contour:      0.00220      0.00001      0.000734980     0.000000000  54
 contour:      0.00294      0.00001      0.000734980     0.000000000  55
 contour:      0.00367      0.00001      0.000734980     0.000000000  56
 contour:      0.00441      0.00001      0.000734980     0.000000000  57
 contour:      0.00514      0.00001      0.000734980     0.000000000  58
 contour:      0.00588      0.00001      0.000734980     0.000000000  59
 contour:      0.00661      0.00001      0.000734980     0.000000000  60
 contour:      0.00735      0.00001      0.000734980     0.000000000  61
 contour:      0.00808      0.00001      0.000734980     0.000000000  62
 contour:      0.00882      0.00001      0.000734980     0.000000000  63
 contour:      0.00955      0.00001      0.000734980     0.000000000  64
 contour:      0.01029      0.00001      0.000734980     0.000000000  65
 contour:      0.01102      0.00001      0.000734980     0.000000000  66
 contour:      0.01176      0.00001      0.000734980     0.000000000  67
 contour:      0.01249      0.00001      0.000734980     0.000000000  68
 contour:      0.01323      0.00001      0.000734980     0.000000000  69
 contour:      0.01396      0.00001      0.000734980     0.000000000  70
 contour:      0.01470      0.00001      0.000734980     0.000000000  71
 contour:      0.01543      0.00001      0.000734980     0.000000000  72
 contour:      0.01617      0.00001      0.000734980     0.000000000  73
 contour:      0.01690      0.00001      0.000734980     0.000000000  74
 contour:      0.01764      0.00001      0.000734980     0.000000000  75
 contour:      0.01837      0.00001      0.000734980     0.000000000  76
 contour:      0.01911      0.00001      0.000734980     0.000000000  77
 contour:      0.01984      0.00001      0.000734980     0.000000000  78
 contour:      0.02058      0.00001      0.000734980     0.000000000  79
 contour:      0.02131      0.00001      0.000734980     0.000000000  80
 contour:      0.02205      0.00001      0.000734980     0.000000000  81
 contour:      0.02278      0.00001      0.000734980     0.000000000  82
 contour:      0.02352      0.00001      0.000734980     0.000000000  83
 contour:      0.02425      0.00001      0.000734980     0.000000000  84
 contour:      0.02499      0.00001      0.000734980     0.000000000  85
 contour:      0.02572      0.00001      0.000734980     0.000000000  86
 contour:      0.02646      0.00001      0.000734980     0.000000000  87
 contour:      0.02719      0.00001      0.000734980     0.000000000  88
 contour:      0.02793      0.00001      0.000734980     0.000000000  89
 contour:      0.02866      0.00001      0.000734980     0.000000000  90
 contour:      0.02940      0.00001      0.000734980     0.000000000  91
 contour:      0.03013      0.00001      0.000734980     0.000000000  92
 contour:      0.03087      0.00001      0.000734980     0.000000000  93
 contour:      0.03160      0.00001      0.000734980     0.000000000  94
 contour:      0.03234      0.00001      0.000734980     0.000000000  95
 contour:      0.03307      0.00001      0.000734980     0.000000000  96
 contour:      0.03381      0.00001      0.000734980     0.000000000  97
 contour:      0.03454      0.00001      0.000734980     0.000000000  98
 contour:      0.03528      0.00001      0.000734980     0.000000000  99
 contour:      0.03601      0.00001      0.000734980     0.000000000 100
 contour:      0.03675      0.00001      0.000734980     0.000000000 101
 
************************************************************************
 K-Points On Nodes:
 
 Node  Numb. K Pts.  Tot. K Pts. 
  0        1            4
  1        1            4
  2        1            4
  3        1            4
------------------------------------------------------------------------
 K-Points Coordinates and Weights (Node,kx,ky,kz,wk),:
 
        0     0.00000     0.00000     0.00000     0.25000
        1     0.19217     0.00000     0.00000     0.25000
        2     0.00000     0.19217     0.00000     0.25000
        3     0.19217     0.19217     0.00000     0.25000
************************************************************************
 
 unit cell:
 16.3483  0.0000  0.0000
  0.0000 16.3483  0.0000
  0.0000  0.0000 15.4134
 unit cell:
 16.3483  0.0000  0.0000
  0.0000 16.3483  0.0000
  0.0000  0.0000 15.4134
 ==============================================================
  Projection Region: atoms : [        37;        76]
  Projection Region: states: [         1;       360] Tot:       360
 
  Starting K-Point loop for spin:   1
 
 Transport for spin ->  1  , kxy-point ->   1, of Node     0
           kxy=(0.000 0.000 0.000 ),w= 0.2500
    E           T(E)            TotDOS         PDOS
 -0.50000  0.17161181E+01  0.14051110E+03  0.14051110E+03
 -0.49000  0.17269989E+01  0.14044995E+03  0.14044995E+03
 -0.48000  0.17377434E+01  0.14038950E+03  0.14038950E+03
 -0.47000  0.17483452E+01  0.14032963E+03  0.14032963E+03
 -0.46000  0.17587981E+01  0.14027025E+03  0.14027025E+03
 -0.45000  0.17690962E+01  0.14021127E+03  0.14021127E+03
 -0.44000  0.17792333E+01  0.14015259E+03  0.14015259E+03
 -0.43000  0.17892035E+01  0.14009414E+03  0.14009414E+03
 -0.42000  0.17990011E+01  0.14003582E+03  0.14003582E+03
 -0.41000  0.18086203E+01  0.13997756E+03  0.13997756E+03
 -0.40000  0.18180556E+01  0.13991930E+03  0.13991930E+03
 -0.39000  0.18273016E+01  0.13986096E+03  0.13986096E+03
 -0.38000  0.18363529E+01  0.13980249E+03  0.13980249E+03
 -0.37000  0.18452045E+01  0.13974382E+03  0.13974382E+03
 -0.36000  0.18538514E+01  0.13968491E+03  0.13968491E+03
 -0.35000  0.18622889E+01  0.13962571E+03  0.13962571E+03
 -0.34000  0.18705123E+01  0.13956616E+03  0.13956616E+03
 -0.33000  0.18785173E+01  0.13950624E+03  0.13950624E+03
 -0.32000  0.18862998E+01  0.13944589E+03  0.13944589E+03
 -0.31000  0.18938556E+01  0.13938511E+03  0.13938511E+03
 -0.30000  0.19011811E+01  0.13932384E+03  0.13932384E+03
 -0.29000  0.19082728E+01  0.13926208E+03  0.13926208E+03
 -0.28000  0.19151272E+01  0.13919980E+03  0.13919980E+03
 -0.27000  0.19217414E+01  0.13913699E+03  0.13913699E+03
 -0.26000  0.19281125E+01  0.13907363E+03  0.13907363E+03
 -0.25000  0.19342378E+01  0.13900971E+03  0.13900971E+03
 -0.24000  0.19401150E+01  0.13894523E+03  0.13894523E+03
 -0.23000  0.19457418E+01  0.13888019E+03  0.13888019E+03
 -0.22000  0.19511165E+01  0.13881459E+03  0.13881459E+03
 -0.21000  0.19562372E+01  0.13874843E+03  0.13874843E+03
 -0.20000  0.19611026E+01  0.13868173E+03  0.13868173E+03
 -0.19000  0.19657114E+01  0.13861450E+03  0.13861450E+03
 -0.18000  0.19700627E+01  0.13854674E+03  0.13854674E+03
 -0.17000  0.19741556E+01  0.13847849E+03  0.13847849E+03
 -0.16000  0.19779896E+01  0.13840976E+03  0.13840976E+03
 -0.15000  0.19815645E+01  0.13834058E+03  0.13834058E+03
 -0.14000  0.19848799E+01  0.13827097E+03  0.13827097E+03
 -0.13000  0.19879362E+01  0.13820096E+03  0.13820096E+03
 -0.12000  0.19907334E+01  0.13813058E+03  0.13813058E+03
 -0.11000  0.19932722E+01  0.13805988E+03  0.13805988E+03
 -0.10000  0.19955531E+01  0.13798889E+03  0.13798889E+03
 -0.09000  0.19975769E+01  0.13791765E+03  0.13791765E+03
 -0.08000  0.19993448E+01  0.13784620E+03  0.13784620E+03
 -0.07000  0.20008577E+01  0.13777458E+03  0.13777458E+03
 -0.06000  0.20021171E+01  0.13770285E+03  0.13770285E+03
 -0.05000  0.20031243E+01  0.13763105E+03  0.13763105E+03
 -0.04000  0.20038809E+01  0.13755924E+03  0.13755924E+03
 -0.03000  0.20043886E+01  0.13748746E+03  0.13748746E+03
 -0.02000  0.20046492E+01  0.13741578E+03  0.13741578E+03
 -0.01000  0.20046646E+01  0.13734425E+03  0.13734425E+03
  0.00000  0.20044368E+01  0.13727293E+03  0.13727293E+03
  0.01000  0.20039678E+01  0.13720187E+03  0.13720187E+03
  0.02000  0.20032597E+01  0.13713115E+03  0.13713115E+03
  0.03000  0.20023148E+01  0.13706082E+03  0.13706082E+03
  0.04000  0.20011353E+01  0.13699095E+03  0.13699095E+03
  0.05000  0.19997234E+01  0.13692161E+03  0.13692161E+03
  0.06000  0.19980814E+01  0.13685286E+03  0.13685286E+03
  0.07000  0.19962117E+01  0.13678477E+03  0.13678477E+03
  0.08000  0.19941166E+01  0.13671741E+03  0.13671741E+03
  0.09000  0.19917984E+01  0.13665086E+03  0.13665086E+03
  0.10000  0.19892594E+01  0.13658519E+03  0.13658519E+03
  0.11000  0.19865019E+01  0.13652046E+03  0.13652046E+03
  0.12000  0.19835282E+01  0.13645676E+03  0.13645676E+03
  0.13000  0.19803404E+01  0.13639415E+03  0.13639415E+03
  0.14000  0.19769407E+01  0.13633271E+03  0.13633271E+03
  0.15000  0.19733313E+01  0.13627253E+03  0.13627253E+03
  0.16000  0.19695141E+01  0.13621367E+03  0.13621367E+03
  0.17000  0.19654913E+01  0.13615621E+03  0.13615621E+03
  0.18000  0.19612646E+01  0.13610023E+03  0.13610023E+03
  0.19000  0.19568360E+01  0.13604580E+03  0.13604580E+03
  0.20000  0.19522070E+01  0.13599301E+03  0.13599301E+03
  0.21000  0.19473795E+01  0.13594193E+03  0.13594193E+03
  0.22000  0.19423549E+01  0.13589264E+03  0.13589264E+03
  0.23000  0.19371346E+01  0.13584522E+03  0.13584522E+03
  0.24000  0.19317200E+01  0.13579973E+03  0.13579973E+03
  0.25000  0.19261123E+01  0.13575627E+03  0.13575627E+03
  0.26000  0.19203126E+01  0.13571490E+03  0.13571490E+03
  0.27000  0.19143218E+01  0.13567570E+03  0.13567570E+03
  0.28000  0.19081409E+01  0.13563875E+03  0.13563875E+03
  0.29000  0.19017706E+01  0.13560411E+03  0.13560411E+03
  0.30000  0.18952114E+01  0.13557185E+03  0.13557185E+03
  0.31000  0.18884640E+01  0.13554206E+03  0.13554206E+03
  0.32000  0.18815286E+01  0.13551478E+03  0.13551478E+03
  0.33000  0.18744056E+01  0.13549010E+03  0.13549010E+03
  0.34000  0.18670950E+01  0.13546807E+03  0.13546807E+03
  0.35000  0.18595970E+01  0.13544875E+03  0.13544875E+03
  0.36000  0.18519114E+01  0.13543221E+03  0.13543221E+03
  0.37000  0.18440381E+01  0.13541849E+03  0.13541849E+03
  0.38000  0.18359768E+01  0.13540765E+03  0.13540765E+03
  0.39000  0.18277270E+01  0.13539974E+03  0.13539974E+03
  0.40000  0.18192885E+01  0.13539479E+03  0.13539479E+03
  0.41000  0.18106605E+01  0.13539285E+03  0.13539285E+03
  0.42000  0.18018426E+01  0.13539394E+03  0.13539394E+03
  0.43000  0.17928341E+01  0.13539811E+03  0.13539811E+03
  0.44000  0.17836343E+01  0.13540537E+03  0.13540537E+03
  0.45000  0.17742424E+01  0.13541573E+03  0.13541573E+03
  0.46000  0.17646578E+01  0.13542920E+03  0.13542920E+03
  0.47000  0.17548797E+01  0.13544579E+03  0.13544579E+03
  0.48000  0.17449073E+01  0.13546549E+03  0.13546549E+03
  0.49000  0.17347400E+01  0.13548829E+03  0.13548829E+03
  0.50000  0.17243772E+01  0.13551416E+03  0.13551416E+03
 Transport for spin ->  1  , kxy-point ->   1, of Node     1
           kxy=(0.192 0.000 0.000 ),w= 0.2500
    E           T(E)            TotDOS         PDOS
 -0.50000  0.14514225E+01  0.16987458E+03  0.16987458E+03
 -0.49000  0.15097729E+01  0.16206027E+03  0.16206027E+03
 -0.48000  0.15277602E+01  0.15483882E+03  0.15483882E+03
 -0.47000  0.15424430E+01  0.13171789E+03  0.13171789E+03
 -0.46000  0.15550747E+01  0.13183561E+03  0.13183561E+03
 -0.45000  0.15673098E+01  0.13242721E+03  0.13242721E+03
 -0.44000  0.15794408E+01  0.13330379E+03  0.13330379E+03
 -0.43000  0.15918013E+01  0.13464936E+03  0.13464936E+03
 -0.42000  0.16051860E+01  0.13731684E+03  0.13731684E+03
 -0.41000  0.16230044E+01  0.14720411E+03  0.14720411E+03
 -0.40000  0.17213503E+01  0.64356750E+03  0.64356750E+03
 -0.39000  0.16029555E+01  0.16503761E+03  0.16503761E+03
 -0.38000  0.16248683E+01  0.14302373E+03  0.14302373E+03
 -0.37000  0.16374319E+01  0.14054452E+03  0.14054452E+03
 -0.36000  0.16476156E+01  0.14043428E+03  0.14043428E+03
 -0.35000  0.16565861E+01  0.14100396E+03  0.14100396E+03
 -0.34000  0.16646742E+01  0.14186710E+03  0.14186710E+03
 -0.33000  0.16719802E+01  0.14289389E+03  0.14289389E+03
 -0.32000  0.16785116E+01  0.14402663E+03  0.14402663E+03
 -0.31000  0.16842229E+01  0.14523033E+03  0.14523033E+03
 -0.30000  0.16890212E+01  0.14647441E+03  0.14647441E+03
 -0.29000  0.16927451E+01  0.14772329E+03  0.14772329E+03
 -0.28000  0.16950818E+01  0.14893181E+03  0.14893181E+03
 -0.27000  0.16951999E+01  0.15006311E+03  0.15006311E+03
 -0.26000  0.16884649E+01  0.15139092E+03  0.15139092E+03
 -0.25000  0.17433684E+01  0.14377102E+03  0.14377102E+03
 -0.24000  0.17071202E+01  0.14639629E+03  0.14639629E+03
 -0.23000  0.16988005E+01  0.14024791E+03  0.14024791E+03
 -0.22000  0.16892980E+01  0.11795743E+03  0.11795743E+03
 -0.21000  0.16799533E+01  0.11993472E+03  0.11993472E+03
 -0.20000  0.16688355E+01  0.12293941E+03  0.12293941E+03
 -0.19000  0.16566378E+01  0.12850309E+03  0.12850309E+03
 -0.18000  0.16508691E+01  0.15614356E+03  0.15614356E+03
 -0.17000  0.15491134E+01  0.38687416E+03  0.38687416E+03
 -0.16000  0.15625142E+01  0.14515393E+03  0.14515393E+03
 -0.15000  0.15338344E+01  0.14143793E+03  0.14143793E+03
 -0.14000  0.14951194E+01  0.14442497E+03  0.14442497E+03
 -0.13000  0.14478933E+01  0.14928691E+03  0.14928691E+03
 -0.12000  0.13920279E+01  0.15527162E+03  0.15527162E+03
 -0.11000  0.13274078E+01  0.16214456E+03  0.16214456E+03
 -0.10000  0.12545498E+01  0.16972111E+03  0.16972111E+03
 -0.09000  0.11751626E+01  0.17772750E+03  0.17772750E+03
 -0.08000  0.10926921E+01  0.18573157E+03  0.18573157E+03
 -0.07000  0.10126366E+01  0.19312222E+03  0.19312222E+03
 -0.06000  0.94225968E+00  0.19916259E+03  0.19916259E+03
 -0.05000  0.88937814E+00  0.20313626E+03  0.20313626E+03
 -0.04000  0.86035723E+00  0.20455597E+03  0.20455597E+03
 -0.03000  0.85813002E+00  0.20334039E+03  0.20334039E+03
 -0.02000  0.88133831E+00  0.19985411E+03  0.19985411E+03
 -0.01000  0.92508376E+00  0.19478518E+03  0.19478518E+03
  0.00000  0.98274632E+00  0.18893768E+03  0.18893768E+03
  0.01000  0.10478339E+01  0.18304965E+03  0.18304965E+03
  0.02000  0.11151512E+01  0.17769783E+03  0.17769783E+03
  0.03000  0.11811840E+01  0.17328622E+03  0.17328622E+03
  0.04000  0.12439616E+01  0.17008359E+03  0.17008359E+03
  0.05000  0.13027054E+01  0.16827660E+03  0.16827660E+03
  0.06000  0.13574653E+01  0.16801913E+03  0.16801913E+03
  0.07000  0.14088267E+01  0.16946994E+03  0.16946994E+03
  0.08000  0.14576965E+01  0.17281512E+03  0.17281512E+03
  0.09000  0.15051353E+01  0.17826977E+03  0.17826977E+03
  0.10000  0.15521765E+01  0.18604430E+03  0.18604430E+03
  0.11000  0.15995472E+01  0.19624696E+03  0.19624696E+03
  0.12000  0.16471894E+01  0.20868054E+03  0.20868054E+03
  0.13000  0.16935379E+01  0.22251005E+03  0.22251005E+03
  0.14000  0.17347954E+01  0.23589952E+03  0.23589952E+03
  0.15000  0.17650301E+01  0.24598655E+03  0.24598655E+03
  0.16000  0.17781825E+01  0.24972316E+03  0.24972316E+03
  0.17000  0.17716100E+01  0.24549345E+03  0.24549345E+03
  0.18000  0.17481943E+01  0.23419445E+03  0.23419445E+03
  0.19000  0.17146409E+01  0.21860280E+03  0.21860280E+03
  0.20000  0.16777908E+01  0.20173314E+03  0.20173314E+03
  0.21000  0.16422574E+01  0.18570062E+03  0.18570062E+03
  0.22000  0.16101994E+01  0.17154089E+03  0.17154089E+03
  0.23000  0.15821206E+01  0.15952967E+03  0.15952967E+03
  0.24000  0.15576985E+01  0.14954656E+03  0.14954656E+03
  0.25000  0.15363151E+01  0.14131816E+03  0.14131816E+03
  0.26000  0.15173224E+01  0.13454461E+03  0.13454461E+03
  0.27000  0.15001479E+01  0.12895313E+03  0.12895313E+03
  0.28000  0.14843221E+01  0.12431465E+03  0.12431465E+03
  0.29000  0.14694732E+01  0.12044424E+03  0.12044424E+03
  0.30000  0.14553095E+01  0.11719577E+03  0.11719577E+03
  0.31000  0.14415979E+01  0.11445607E+03  0.11445607E+03
  0.32000  0.14281305E+01  0.11214343E+03  0.11214343E+03
  0.33000  0.14144685E+01  0.11045165E+03  0.11045165E+03
  0.34000  0.14018009E+01  0.11453018E+03  0.11453018E+03
  0.35000  0.13892091E+01  0.11551663E+03  0.11551663E+03
  0.36000  0.13765697E+01  0.11606628E+03  0.11606628E+03
  0.37000  0.13638526E+01  0.11645030E+03  0.11645030E+03
  0.38000  0.13510332E+01  0.11676101E+03  0.11676101E+03
  0.39000  0.13380928E+01  0.11703862E+03  0.11703862E+03
  0.40000  0.13250183E+01  0.11730261E+03  0.11730261E+03
  0.41000  0.13118007E+01  0.11756293E+03  0.11756293E+03
  0.42000  0.12984348E+01  0.11782468E+03  0.11782468E+03
  0.43000  0.12849178E+01  0.11809040E+03  0.11809040E+03
  0.44000  0.12712491E+01  0.11836123E+03  0.11836123E+03
  0.45000  0.12574300E+01  0.11863752E+03  0.11863752E+03
  0.46000  0.12434630E+01  0.11891921E+03  0.11891921E+03
  0.47000  0.12293516E+01  0.11920603E+03  0.11920603E+03
  0.48000  0.12151000E+01  0.11949765E+03  0.11949765E+03
  0.49000  0.12007133E+01  0.11979372E+03  0.11979372E+03
  0.50000  0.11861964E+01  0.12009395E+03  0.12009395E+03
 Transport for spin ->  1  , kxy-point ->   1, of Node     2
           kxy=(0.000 0.192 0.000 ),w= 0.2500
    E           T(E)            TotDOS         PDOS
 -0.50000  0.14514225E+01  0.16987458E+03  0.16987458E+03
 -0.49000  0.15097729E+01  0.16206027E+03  0.16206027E+03
 -0.48000  0.15277602E+01  0.15483882E+03  0.15483882E+03
 -0.47000  0.15424430E+01  0.13171789E+03  0.13171789E+03
 -0.46000  0.15550747E+01  0.13183561E+03  0.13183561E+03
 -0.45000  0.15673098E+01  0.13242721E+03  0.13242721E+03
 -0.44000  0.15794408E+01  0.13330379E+03  0.13330379E+03
 -0.43000  0.15918013E+01  0.13464936E+03  0.13464936E+03
 -0.42000  0.16051860E+01  0.13731684E+03  0.13731684E+03
 -0.41000  0.16230044E+01  0.14720411E+03  0.14720411E+03
 -0.40000  0.17213503E+01  0.64356751E+03  0.64356751E+03
 -0.39000  0.16029555E+01  0.16503761E+03  0.16503761E+03
 -0.38000  0.16248683E+01  0.14302373E+03  0.14302373E+03
 -0.37000  0.16374319E+01  0.14054452E+03  0.14054452E+03
 -0.36000  0.16476156E+01  0.14043428E+03  0.14043428E+03
 -0.35000  0.16565861E+01  0.14100396E+03  0.14100396E+03
 -0.34000  0.16646742E+01  0.14186710E+03  0.14186710E+03
 -0.33000  0.16719802E+01  0.14289389E+03  0.14289389E+03
 -0.32000  0.16785116E+01  0.14402663E+03  0.14402663E+03
 -0.31000  0.16842229E+01  0.14523033E+03  0.14523033E+03
 -0.30000  0.16890212E+01  0.14647441E+03  0.14647441E+03
 -0.29000  0.16927450E+01  0.14772329E+03  0.14772329E+03
 -0.28000  0.16950818E+01  0.14893181E+03  0.14893181E+03
 -0.27000  0.16951999E+01  0.15006311E+03  0.15006311E+03
 -0.26000  0.16884649E+01  0.15139092E+03  0.15139092E+03
 -0.25000  0.17433684E+01  0.14377102E+03  0.14377102E+03
 -0.24000  0.17071202E+01  0.14639629E+03  0.14639629E+03
 -0.23000  0.16988005E+01  0.14024791E+03  0.14024791E+03
 -0.22000  0.16892980E+01  0.11795743E+03  0.11795743E+03
 -0.21000  0.16799533E+01  0.11993472E+03  0.11993472E+03
 -0.20000  0.16688355E+01  0.12293941E+03  0.12293941E+03
 -0.19000  0.16566378E+01  0.12850309E+03  0.12850309E+03
 -0.18000  0.16508691E+01  0.15614356E+03  0.15614356E+03
 -0.17000  0.15491134E+01  0.38687415E+03  0.38687415E+03
 -0.16000  0.15625142E+01  0.14515393E+03  0.14515393E+03
 -0.15000  0.15338344E+01  0.14143793E+03  0.14143793E+03
 -0.14000  0.14951194E+01  0.14442497E+03  0.14442497E+03
 -0.13000  0.14478933E+01  0.14928691E+03  0.14928691E+03
 -0.12000  0.13920279E+01  0.15527162E+03  0.15527162E+03
 -0.11000  0.13274078E+01  0.16214456E+03  0.16214456E+03
 -0.10000  0.12545498E+01  0.16972111E+03  0.16972111E+03
 -0.09000  0.11751626E+01  0.17772750E+03  0.17772750E+03
 -0.08000  0.10926921E+01  0.18573157E+03  0.18573157E+03
 -0.07000  0.10126366E+01  0.19312222E+03  0.19312222E+03
 -0.06000  0.94225968E+00  0.19916259E+03  0.19916259E+03
 -0.05000  0.88937814E+00  0.20313626E+03  0.20313626E+03
 -0.04000  0.86035723E+00  0.20455597E+03  0.20455597E+03
 -0.03000  0.85813002E+00  0.20334039E+03  0.20334039E+03
 -0.02000  0.88133831E+00  0.19985411E+03  0.19985411E+03
 -0.01000  0.92508376E+00  0.19478518E+03  0.19478518E+03
  0.00000  0.98274632E+00  0.18893768E+03  0.18893768E+03
  0.01000  0.10478339E+01  0.18304965E+03  0.18304965E+03
  0.02000  0.11151512E+01  0.17769783E+03  0.17769783E+03
  0.03000  0.11811840E+01  0.17328622E+03  0.17328622E+03
  0.04000  0.12439616E+01  0.17008359E+03  0.17008359E+03
  0.05000  0.13027054E+01  0.16827660E+03  0.16827660E+03
  0.06000  0.13574653E+01  0.16801913E+03  0.16801913E+03
  0.07000  0.14088267E+01  0.16946994E+03  0.16946994E+03
  0.08000  0.14576965E+01  0.17281512E+03  0.17281512E+03
  0.09000  0.15051353E+01  0.17826977E+03  0.17826977E+03
  0.10000  0.15521765E+01  0.18604430E+03  0.18604430E+03
  0.11000  0.15995472E+01  0.19624696E+03  0.19624696E+03
  0.12000  0.16471894E+01  0.20868054E+03  0.20868054E+03
  0.13000  0.16935379E+01  0.22251005E+03  0.22251005E+03
  0.14000  0.17347954E+01  0.23589952E+03  0.23589952E+03
  0.15000  0.17650301E+01  0.24598655E+03  0.24598655E+03
  0.16000  0.17781825E+01  0.24972316E+03  0.24972316E+03
  0.17000  0.17716100E+01  0.24549345E+03  0.24549345E+03
  0.18000  0.17481943E+01  0.23419445E+03  0.23419445E+03
  0.19000  0.17146409E+01  0.21860280E+03  0.21860280E+03
  0.20000  0.16777908E+01  0.20173314E+03  0.20173314E+03
  0.21000  0.16422574E+01  0.18570062E+03  0.18570062E+03
  0.22000  0.16101994E+01  0.17154089E+03  0.17154089E+03
  0.23000  0.15821206E+01  0.15952967E+03  0.15952967E+03
  0.24000  0.15576985E+01  0.14954656E+03  0.14954656E+03
  0.25000  0.15363151E+01  0.14131816E+03  0.14131816E+03
  0.26000  0.15173224E+01  0.13454461E+03  0.13454461E+03
  0.27000  0.15001479E+01  0.12895313E+03  0.12895313E+03
  0.28000  0.14843221E+01  0.12431465E+03  0.12431465E+03
  0.29000  0.14694732E+01  0.12044424E+03  0.12044424E+03
  0.30000  0.14553095E+01  0.11719577E+03  0.11719577E+03
  0.31000  0.14415979E+01  0.11445607E+03  0.11445607E+03
  0.32000  0.14281305E+01  0.11214343E+03  0.11214343E+03
  0.33000  0.14144685E+01  0.11045165E+03  0.11045165E+03
  0.34000  0.14018009E+01  0.11453018E+03  0.11453018E+03
  0.35000  0.13892091E+01  0.11551663E+03  0.11551663E+03
  0.36000  0.13765697E+01  0.11606628E+03  0.11606628E+03
  0.37000  0.13638526E+01  0.11645030E+03  0.11645030E+03
  0.38000  0.13510332E+01  0.11676101E+03  0.11676101E+03
  0.39000  0.13380928E+01  0.11703862E+03  0.11703862E+03
  0.40000  0.13250183E+01  0.11730261E+03  0.11730261E+03
  0.41000  0.13118007E+01  0.11756293E+03  0.11756293E+03
  0.42000  0.12984348E+01  0.11782468E+03  0.11782468E+03
  0.43000  0.12849178E+01  0.11809040E+03  0.11809040E+03
  0.44000  0.12712491E+01  0.11836123E+03  0.11836123E+03
  0.45000  0.12574300E+01  0.11863752E+03  0.11863752E+03
  0.46000  0.12434630E+01  0.11891921E+03  0.11891921E+03
  0.47000  0.12293516E+01  0.11920603E+03  0.11920603E+03
  0.48000  0.12151000E+01  0.11949765E+03  0.11949765E+03
  0.49000  0.12007133E+01  0.11979372E+03  0.11979372E+03
  0.50000  0.11861964E+01  0.12009395E+03  0.12009395E+03
 Transport for spin ->  1  , kxy-point ->   1, of Node     3
           kxy=(0.192 0.192 0.000 ),w= 0.2500
    E           T(E)            TotDOS         PDOS
 -0.50000  0.15208395E+01  0.75045586E+02  0.75045586E+02
 -0.49000  0.15368706E+01  0.75113141E+02  0.75113141E+02
 -0.48000  0.15527413E+01  0.75184718E+02  0.75184718E+02
 -0.47000  0.15684290E+01  0.75260641E+02  0.75260641E+02
 -0.46000  0.15839102E+01  0.75341331E+02  0.75341331E+02
 -0.45000  0.15991617E+01  0.75427318E+02  0.75427318E+02
 -0.44000  0.16141595E+01  0.75519268E+02  0.75519268E+02
 -0.43000  0.16288793E+01  0.75618013E+02  0.75618013E+02
 -0.42000  0.16432959E+01  0.75724589E+02  0.75724589E+02
 -0.41000  0.16573835E+01  0.75840288E+02  0.75840288E+02
 -0.40000  0.16711149E+01  0.75966733E+02  0.75966733E+02
 -0.39000  0.16844610E+01  0.76105983E+02  0.76105983E+02
 -0.38000  0.16973901E+01  0.76260681E+02  0.76260681E+02
 -0.37000  0.17098667E+01  0.76434280E+02  0.76434280E+02
 -0.36000  0.17218488E+01  0.76631399E+02  0.76631399E+02
 -0.35000  0.17332857E+01  0.76858396E+02  0.76858396E+02
 -0.34000  0.17441113E+01  0.77124361E+02  0.77124361E+02
 -0.33000  0.17542341E+01  0.77442955E+02  0.77442955E+02
 -0.32000  0.17635162E+01  0.77836169E+02  0.77836169E+02
 -0.31000  0.17717260E+01  0.78343077E+02  0.78343077E+02
 -0.30000  0.17784065E+01  0.79044933E+02  0.79044933E+02
 -0.29000  0.17823608E+01  0.80169896E+02  0.80169896E+02
 -0.28000  0.17747523E+01  0.83999389E+02  0.83999389E+02
 -0.27000  0.17469488E+01  0.12998308E+03  0.12998308E+03
 -0.26000  0.17461587E+01  0.14705625E+03  0.14705625E+03
 -0.25000  0.17493972E+01  0.15836207E+03  0.15836207E+03
 -0.24000  0.17545774E+01  0.16671886E+03  0.16671886E+03
 -0.23000  0.17608791E+01  0.17322748E+03  0.17322748E+03
 -0.22000  0.17678690E+01  0.17846088E+03  0.17846088E+03
 -0.21000  0.17752803E+01  0.18276350E+03  0.18276350E+03
 -0.20000  0.17829308E+01  0.18636149E+03  0.18636149E+03
 -0.19000  0.17906865E+01  0.18941245E+03  0.18941245E+03
 -0.18000  0.17984426E+01  0.19203107E+03  0.19203107E+03
 -0.17000  0.18061124E+01  0.19430372E+03  0.19430372E+03
 -0.16000  0.18136208E+01  0.19629724E+03  0.19629724E+03
 -0.15000  0.18208987E+01  0.19806470E+03  0.19806470E+03
 -0.14000  0.18278799E+01  0.19964927E+03  0.19964927E+03
 -0.13000  0.18344966E+01  0.20108706E+03  0.20108706E+03
 -0.12000  0.18406760E+01  0.20240927E+03  0.20240927E+03
 -0.11000  0.18463342E+01  0.20364411E+03  0.20364411E+03
 -0.10000  0.18513688E+01  0.20481871E+03  0.20481871E+03
 -0.09000  0.18556450E+01  0.20596147E+03  0.20596147E+03
 -0.08000  0.18589721E+01  0.20710567E+03  0.20710567E+03
 -0.07000  0.18610552E+01  0.20829613E+03  0.20829613E+03
 -0.06000  0.18613849E+01  0.20960431E+03  0.20960431E+03
 -0.05000  0.18589293E+01  0.21117093E+03  0.21117093E+03
 -0.04000  0.18509197E+01  0.21338266E+03  0.21338266E+03
 -0.03000  0.18185243E+01  0.21956816E+03  0.21956816E+03
 -0.02000  0.17982858E+01  0.28146676E+03  0.28146676E+03
 -0.01000  0.18102225E+01  0.30194292E+03  0.30194292E+03
  0.00000  0.18233912E+01  0.31439078E+03  0.31439078E+03
  0.01000  0.18367964E+01  0.32294984E+03  0.32294984E+03
  0.02000  0.18501234E+01  0.32920148E+03  0.32920148E+03
  0.03000  0.18632334E+01  0.33394513E+03  0.33394513E+03
  0.04000  0.18760500E+01  0.33764463E+03  0.33764463E+03
  0.05000  0.18885224E+01  0.34059241E+03  0.34059241E+03
  0.06000  0.19006104E+01  0.34298332E+03  0.34298332E+03
  0.07000  0.19122781E+01  0.34495243E+03  0.34495243E+03
  0.08000  0.19234908E+01  0.34659616E+03  0.34659616E+03
  0.09000  0.19342133E+01  0.34798488E+03  0.34798488E+03
  0.10000  0.19444093E+01  0.34917085E+03  0.34917085E+03
  0.11000  0.19540408E+01  0.35019337E+03  0.35019337E+03
  0.12000  0.19630680E+01  0.35108229E+03  0.35108229E+03
  0.13000  0.19714495E+01  0.35186041E+03  0.35186041E+03
  0.14000  0.19791422E+01  0.35254524E+03  0.35254524E+03
  0.15000  0.19861011E+01  0.35315019E+03  0.35315019E+03
  0.16000  0.19922804E+01  0.35368555E+03  0.35368555E+03
  0.17000  0.19976327E+01  0.35415913E+03  0.35415913E+03
  0.18000  0.20021101E+01  0.35457681E+03  0.35457681E+03
  0.19000  0.20056639E+01  0.35494291E+03  0.35494291E+03
  0.20000  0.20082453E+01  0.35526053E+03  0.35526053E+03
  0.21000  0.20098057E+01  0.35553179E+03  0.35553179E+03
  0.22000  0.20102971E+01  0.35575801E+03  0.35575801E+03
  0.23000  0.20096725E+01  0.35593988E+03  0.35593988E+03
  0.24000  0.20078865E+01  0.35607760E+03  0.35607760E+03
  0.25000  0.20048956E+01  0.35617094E+03  0.35617094E+03
  0.26000  0.20006591E+01  0.35621937E+03  0.35621937E+03
  0.27000  0.19951392E+01  0.35622212E+03  0.35622212E+03
  0.28000  0.19883017E+01  0.35617823E+03  0.35617823E+03
  0.29000  0.19801167E+01  0.35608663E+03  0.35608663E+03
  0.30000  0.19705591E+01  0.35594613E+03  0.35594613E+03
  0.31000  0.19596090E+01  0.35575554E+03  0.35575554E+03
  0.32000  0.19472522E+01  0.35551361E+03  0.35551361E+03
  0.33000  0.19334807E+01  0.35521913E+03  0.35521913E+03
  0.34000  0.19182933E+01  0.35487094E+03  0.35487094E+03
  0.35000  0.19016954E+01  0.35446793E+03  0.35446793E+03
  0.36000  0.18837001E+01  0.35400907E+03  0.35400907E+03
  0.37000  0.18643275E+01  0.35349345E+03  0.35349345E+03
  0.38000  0.18436056E+01  0.35292024E+03  0.35292024E+03
  0.39000  0.18215696E+01  0.35228876E+03  0.35228876E+03
  0.40000  0.17982625E+01  0.35159847E+03  0.35159847E+03
  0.41000  0.17737344E+01  0.35084894E+03  0.35084894E+03
  0.42000  0.17480425E+01  0.35003993E+03  0.35003993E+03
  0.43000  0.17212505E+01  0.34917132E+03  0.34917132E+03
  0.44000  0.16934284E+01  0.34824315E+03  0.34824315E+03
  0.45000  0.16646517E+01  0.34725561E+03  0.34725561E+03
  0.46000  0.16350008E+01  0.34620904E+03  0.34620904E+03
  0.47000  0.16045607E+01  0.34510392E+03  0.34510392E+03
  0.48000  0.15734193E+01  0.34394088E+03  0.34394088E+03
  0.49000  0.15416679E+01  0.34272067E+03  0.34272067E+03
  0.50000  0.15093991E+01  0.34144419E+03  0.34144419E+03
 ==============================================================
 
 Results:
 
  Voltage, Current(A) =   2.50000000E-01  1.50282136E-05
 
 ==============================================================
