Siesta Version  : trunk-755
Architecture    : unknown
Compiler version: GNU Fortran (Ubuntu 5.4.0-6ubuntu1~16.04.10) 5.4.0 20160609
Compiler flags  : mpif90 -O2 -fPIC -ftree-vectorize
PP flags        : -DFC_HAVE_ABORT -DMPI -DFC_HAVE_FLUSH -DFC_HAVE_ABORT -DGRID_DP -DPHI_GRID_SP -DSIESTA__HAS__SPGLIB  -DSIESTA__DIAG_2STAGE
Libraries       : libsiestaLAPACK.a libsiestaBLAS.a libfdict.a  /usr/lib/libscalapack-openmpi.so   libsiestaLAPACK.a libsiestaBLAS.a libfdict.a /usr/lib/libblacsF77init-openmpi.so /usr/lib/libblacsCinit-openmpi.so /usr/lib/libblacs-openmpi.so
Directory       : /home/ICN2/aakhtar/Projects/spglib-inclusion/Obj-spg/Tests/Space_Group/06-cubic-cF.33-spg227/work
PARALLEL version

* Running on 8 nodes in parallel
>> Start of run:   2-APR-2019  17:13:53

                           ***********************       
                           *  WELCOME TO SIESTA  *       
                           ***********************       

reinit: Reading from ../06-cubic-cF.33-spg227.fdf

reinit: -----------------------------------------------------------------------
reinit: System Name: 
reinit: -----------------------------------------------------------------------
reinit: System Label: 06-cubic-cF.33-spg227.inp
reinit: -----------------------------------------------------------------------

initatom: Reading input for the pseudopotentials and atomic orbitals ----------
Species number:   1 Atomic number:    1 Label: H

Ground state valence configuration:   1s01
Reading pseudopotential information in formatted form from H.psf

Valence configuration for pseudopotential generation:
1s( 1.00) rc: 1.25
2p( 0.00) rc: 1.25
3d( 0.00) rc: 1.25
4f( 0.00) rc: 1.25
For H, standard SIESTA heuristics set lmxkb to 2
 (one more than the basis l, including polarization orbitals).
Use PS.lmax or PS.KBprojectors blocks to override.

<basis_specs>
===============================================================================
H                    Z=   1    Mass=  1.0100        Charge= 0.17977+309
Lmxo=0 Lmxkb= 2    BasisType=split      Semic=F
L=0  Nsemic=0  Cnfigmx=1
          n=1  nzeta=2  polorb=1
            splnorm:   0.15000    
               vcte:    0.0000    
               rinn:    0.0000    
               qcoe:    0.0000    
               qyuk:    0.0000    
               qwid:   0.10000E-01
                rcs:    0.0000      0.0000    
            lambdas:    1.0000      1.0000    
-------------------------------------------------------------------------------
L=0  Nkbl=1  erefs: 0.17977+309
L=1  Nkbl=1  erefs: 0.17977+309
L=2  Nkbl=1  erefs: 0.17977+309
===============================================================================
</basis_specs>

atom: Called for H                     (Z =   1)

read_vps: Pseudopotential generation method:
read_vps: ATM3      Troullier-Martins                       
Total valence charge:    1.00000

xc_check: Exchange-correlation functional:
xc_check: Ceperley-Alder
V l=0 = -2*Zval/r beyond r=  1.2343
V l=1 = -2*Zval/r beyond r=  1.2189
V l=2 = -2*Zval/r beyond r=  1.2189
All V_l potentials equal beyond r=  1.2343
This should be close to max(r_c) in ps generation
All pots = -2*Zval/r beyond r=  1.2343

VLOCAL1: 99.0% of the norm of Vloc inside     28.493 Ry
VLOCAL1: 99.9% of the norm of Vloc inside     64.935 Ry
atom: Maximum radius for 4*pi*r*r*local-pseudopot. charge    1.45251
atom: Maximum radius for r*vlocal+2*Zval:    1.21892

KBgen: Kleinman-Bylander projectors: 
GHOST: No ghost state for L =  0
   l= 0   rc=  1.364359   el= -0.467325   Ekb= -2.005361   kbcos= -0.336422
GHOST: No ghost state for L =  1
   l= 1   rc=  1.434438   el=  0.001430   Ekb= -0.501708   kbcos= -0.021697
GHOST: No ghost state for L =  2
   l= 2   rc=  1.470814   el=  0.002365   Ekb= -0.190555   kbcos= -0.002281

KBgen: Total number of  Kleinman-Bylander projectors:    9
atom: -------------------------------------------------------------------------

atom: SANKEY-TYPE ORBITALS:
atom: Selected multiple-zeta basis: split     

SPLIT: Orbitals with angular momentum L= 0

SPLIT: Basis orbitals for state 1s

SPLIT: PAO cut-off radius determined from an
SPLIT: energy shift=  0.020000 Ry

   izeta = 1
                 lambda =    1.000000
                     rc =    4.828263
                 energy =   -0.449375
                kinetic =    0.929372
    potential(screened) =   -1.378747
       potential(ionic) =   -1.915047

   izeta = 2
                 rmatch =    3.854947
              splitnorm =    0.150000
                 energy =   -0.336153
                kinetic =    1.505294
    potential(screened) =   -1.841447
       potential(ionic) =   -2.413582

POLgen: Perturbative polarization orbital with L=  1

POLgen: Polarization orbital for state 1s

   izeta = 1
                     rc =    4.828263
                 energy =    0.706972
                kinetic =    1.396397
    potential(screened) =   -0.689424
       potential(ionic) =   -1.169792
atom: Total number of Sankey-type orbitals:  5

atm_pop: Valence configuration (for local Pseudopot. screening):
 1s( 1.00)                                                            
Vna: chval, zval:    1.00000   1.00000

Vna:  Cut-off radius for the neutral-atom potential:   4.828263

atom: _________________________________________________________________________

prinput: Basis input ----------------------------------------------------------

PAO.BasisType split     

%block ChemicalSpeciesLabel
    1    1 H                       # Species index, atomic number, species label
%endblock ChemicalSpeciesLabel

%block PAO.Basis                 # Define Basis set
H                     1                    # Species label, number of l-shells
 n=1   0   2 P   1                   # n, l, Nzeta, Polarization, NzetaPol
   4.828      3.855   
   1.000      1.000   
%endblock PAO.Basis

prinput: ----------------------------------------------------------------------

coor:   Atomic-coordinates input format  =     Fractional

siesta: Atomic coordinates (Bohr) and species
siesta:      2.57003   2.26767   1.66296  1        1
siesta:      1.66296   2.57003   2.26767  1        2
siesta:      4.98888   5.29124   1.66296  1        3
siesta:      4.98888   2.26767   5.89595  1        4
siesta:      6.04713   6.34948   2.11649  1        5
siesta:      1.20943   1.51178   2.11649  1        6
siesta:      2.26767   1.66296   2.57003  1        7
siesta:      1.66296   4.98888   5.29124  1        8
siesta:      5.89595   4.98888   2.26767  1        9
siesta:      2.11649   6.04713   6.34948  1       10
siesta:      2.11649   1.20943   1.51178  1       11
siesta:      2.57003   5.29124   5.89595  1       12
siesta:      1.51178   1.20943   2.11649  1       13
siesta:      6.34948   6.04713   2.11649  1       14
siesta:      5.89595   2.57003   5.29124  1       15
siesta:      1.51178   6.34948   5.44241  1       16
siesta:      6.34948   1.51178   5.44241  1       17
siesta:      6.34948   5.44241   1.51178  1       18
siesta:      6.04713   1.20943   5.44241  1       19
siesta:      5.29124   4.98888   1.66296  1       20
siesta:      5.29124   1.66296   4.98888  1       21
siesta:      2.26767   5.89595   4.98888  1       22
siesta:      6.34948   2.11649   6.04713  1       23
siesta:      1.51178   2.11649   1.20943  1       24
siesta:      2.11649   1.51178   1.20943  1       25
siesta:      2.11649   6.34948   6.04713  1       26
siesta:      5.29124   5.89595   2.57003  1       27
siesta:      5.44241   1.51178   6.34948  1       28
siesta:      5.44241   6.34948   1.51178  1       29
siesta:      5.44241   6.04713   1.20943  1       30
siesta:      1.66296   5.29124   4.98888  1       31
siesta:      1.20943   6.04713   5.44241  1       32
siesta:      1.20943   2.11649   1.51178  1       33
siesta:      2.26767   2.57003   1.66296  1       34
siesta:      5.44241   1.20943   6.04713  1       35
siesta:      1.20943   5.44241   6.04713  1       36
siesta:      2.26767   4.98888   5.89595  1       37
siesta:      4.98888   5.89595   2.26767  1       38
siesta:      5.29124   2.57003   5.89595  1       39
siesta:      6.04713   2.11649   6.34948  1       40
siesta:      1.51178   5.44241   6.34948  1       41
siesta:      4.98888   1.66296   5.29124  1       42
siesta:      1.66296   2.26767   2.57003  1       43
siesta:      6.04713   5.44241   1.20943  1       44
siesta:      5.89595   2.26767   4.98888  1       45
siesta:      5.89595   5.29124   2.57003  1       46
siesta:      2.57003   1.66296   2.26767  1       47
siesta:      2.57003   5.89595   5.29124  1       48

siesta: System type = bulk      

initatomlists: Number of atoms, orbitals, and projectors:     48   240   432

----------------------------------------------------------------------
 Output of crystal symmetries 

 Int Sp Group number =    227
 Int Sp Group symbol = Fd-3m      
 Bravais lattice is    225  Fm-3m      
 Hall number =    525

 number of symops =     48
 symops and translations in reduced coordinates = 
     1     0     0
     0     1     0
     0     0     1
    0.0000000000E+00      0.0000000000E+00      0.0000000000E+00

     0     0     1
    -1     0     1
     0    -1     1
    0.2500000000E+00      0.2500000000E+00      0.2500000000E+00

     0    -1     1
     0    -1     0
     1    -1     0
    0.1000000000E+01      0.2220446049E-15      0.4440892099E-15

     1    -1     0
     1     0    -1
     1     0     0
    0.2500000000E+00      0.2500000000E+00      0.2500000000E+00

    -1     0     0
    -1     0     1
    -1     1     0
    0.2220446049E-15      0.1000000000E+01      0.8881784197E-15

    -1     1     0
     0     1     0
     0     1    -1
    0.2500000000E+00      0.2500000000E+00      0.2500000000E+00

     0     1    -1
     1     0    -1
     0     0    -1
    0.1000000000E+01      0.2220446049E-15      0.8881784197E-15

     0     0    -1
     0    -1     0
    -1     0     0
    0.2500000000E+00      0.2500000000E+00      0.2500000000E+00

    -1     1     0
    -1     0     0
    -1     0     1
    0.2220446049E-15      0.0000000000E+00      0.0000000000E+00

    -1     0     1
     0    -1     1
     0     0     1
    0.2500000000E+00      0.2500000000E+00      0.2500000000E+00

     0     0     1
     1     0     0
     0     1     0
    0.1000000000E+01      0.1000000000E+01      0.4440892099E-15

     0     1     0
     0     1    -1
    -1     1     0
    0.2500000000E+00      0.2500000000E+00      0.2500000000E+00

     1    -1     0
     0    -1     1
     0    -1     0
    0.1000000000E+01      0.4440892099E-15      0.8881784197E-15

     0    -1     0
    -1     0     0
     0     0    -1
    0.2500000000E+00      0.2500000000E+00      0.2500000000E+00

     0     0    -1
     0     1    -1
     1     0    -1
    0.1000000000E+01      0.0000000000E+00      0.4440892099E-15

     1     0    -1
     1     0     0
     1    -1     0
    0.2500000000E+00      0.2500000000E+00      0.2500000000E+00

     0    -1     0
     1    -1     0
     0    -1     1
    0.0000000000E+00      0.2220446049E-15      0.0000000000E+00

     0    -1     1
     0     0     1
    -1     0     1
    0.2500000000E+00      0.2500000000E+00      0.2500000000E+00

    -1     0     1
    -1     1     0
    -1     0     0
    0.4440892099E-15      0.1000000000E+01      0.4440892099E-15

    -1     0     0
     0     0    -1
     0    -1     0
    0.2500000000E+00      0.2500000000E+00      0.2500000000E+00

     0     1     0
     0     0     1
     1     0     0
    0.1000000000E+01      0.0000000000E+00      0.4440892099E-15

     1     0     0
     1    -1     0
     1     0    -1
    0.2500000000E+00      0.2500000000E+00      0.2500000000E+00

     1     0    -1
     0     0    -1
     0     1    -1
    0.3330669074E-15      0.1000000000E+01      0.4440892099E-15

     0     1    -1
    -1     1     0
     0     1     0
    0.2500000000E+00      0.2500000000E+00      0.2500000000E+00

    -1     0     0
     0    -1     0
     0     0    -1
    0.2500000000E+00      0.2500000000E+00      0.2500000000E+00

     0     0    -1
     1     0    -1
     0     1    -1
    0.2220446049E-15      0.1000000000E+01      0.8881784197E-15

     0     1    -1
     0     1     0
    -1     1     0
    0.2500000000E+00      0.2500000000E+00      0.2500000000E+00

    -1     1     0
    -1     0     1
    -1     0     0
    0.3330669074E-15      0.1000000000E+01      0.4440892099E-15

     1     0     0
     1     0    -1
     1    -1     0
    0.2500000000E+00      0.2500000000E+00      0.2500000000E+00

     1    -1     0
     0    -1     0
     0    -1     1
    0.0000000000E+00      0.3330669074E-15      0.1000000000E+01

     0    -1     1
    -1     0     1
     0     0     1
    0.2500000000E+00      0.2500000000E+00      0.2500000000E+00

     0     0     1
     0     1     0
     1     0     0
    0.1000000000E+01      0.0000000000E+00      0.2220446049E-15

     1    -1     0
     1     0     0
     1     0    -1
    0.2500000000E+00      0.2500000000E+00      0.2500000000E+00

     1     0    -1
     0     1    -1
     0     0    -1
    0.0000000000E+00      0.0000000000E+00      0.8881784197E-15

     0     0    -1
    -1     0     0
     0    -1     0
    0.2500000000E+00      0.2500000000E+00      0.2500000000E+00

     0    -1     0
     0    -1     1
     1    -1     0
    0.1000000000E+01      0.2220446049E-15      0.4440892099E-15

    -1     1     0
     0     1    -1
     0     1     0
    0.2500000000E+00      0.2500000000E+00      0.2500000000E+00

     0     1     0
     1     0     0
     0     0     1
    0.0000000000E+00      0.0000000000E+00      0.1000000000E+01

     0     0     1
     0    -1     1
    -1     0     1
    0.2500000000E+00      0.2500000000E+00      0.2500000000E+00

    -1     0     1
    -1     0     0
    -1     1     0
    0.2220446049E-15      0.1000000000E+01      0.4440892099E-15

     0     1     0
    -1     1     0
     0     1    -1
    0.2500000000E+00      0.2500000000E+00      0.2500000000E+00

     0     1    -1
     0     0    -1
     1     0    -1
    0.1000000000E+01      0.4440892099E-15      0.8881784197E-15

     1     0    -1
     1    -1     0
     1     0     0
    0.2500000000E+00      0.2500000000E+00      0.2500000000E+00

     1     0     0
     0     0     1
     0     1     0
    0.0000000000E+00      0.1000000000E+01      0.2220446049E-15

     0    -1     0
     0     0    -1
    -1     0     0
    0.2500000000E+00      0.2500000000E+00      0.2500000000E+00

    -1     0     0
    -1     1     0
    -1     0     1
    0.3330669074E-15      0.0000000000E+00      0.1000000000E+01

    -1     0     1
     0     0     1
     0    -1     1
    0.2500000000E+00      0.2500000000E+00      0.2500000000E+00

     0    -1     1
     1    -1     0
     0    -1     0
    0.1000000000E+01      0.3330669074E-15      0.4440892099E-15

 symops and translations in cartesian coordinates = 
    0.1000000000E+01    0.0000000000E+00    0.0000000000E+00
    0.0000000000E+00    0.1000000000E+01    0.0000000000E+00
    0.0000000000E+00    0.0000000000E+00    0.1000000000E+01
    0.0000000000E+00      0.0000000000E+00      0.0000000000E+00

    0.0000000000E+00    0.0000000000E+00   -0.1000000000E+01
    0.0000000000E+00    0.1000000000E+01    0.0000000000E+00
    0.1000000000E+01    0.0000000000E+00    0.0000000000E+00
    0.3779453756E+01      0.3779453756E+01      0.3779453756E+01

   -0.1000000000E+01    0.0000000000E+00    0.0000000000E+00
    0.0000000000E+00    0.1000000000E+01    0.0000000000E+00
    0.0000000000E+00    0.0000000000E+00   -0.1000000000E+01
    0.5035243896E-14      0.7558907511E+01      0.7558907511E+01

    0.0000000000E+00    0.0000000000E+00    0.1000000000E+01
    0.0000000000E+00    0.1000000000E+01    0.0000000000E+00
   -0.1000000000E+01    0.0000000000E+00    0.0000000000E+00
    0.3779453756E+01      0.3779453756E+01      0.3779453756E+01

    0.1000000000E+01    0.0000000000E+00    0.0000000000E+00
    0.0000000000E+00   -0.1000000000E+01    0.0000000000E+00
    0.0000000000E+00    0.0000000000E+00   -0.1000000000E+01
    0.7558907511E+01      0.8392073160E-14      0.7558907511E+01

    0.0000000000E+00    0.0000000000E+00    0.1000000000E+01
    0.0000000000E+00   -0.1000000000E+01    0.0000000000E+00
    0.1000000000E+01    0.0000000000E+00    0.0000000000E+00
    0.3779453756E+01      0.3779453756E+01      0.3779453756E+01

   -0.1000000000E+01    0.0000000000E+00    0.0000000000E+00
    0.0000000000E+00   -0.1000000000E+01    0.0000000000E+00
    0.0000000000E+00    0.0000000000E+00    0.1000000000E+01
    0.8392073160E-14      0.7558907511E+01      0.7558907511E+01

    0.0000000000E+00    0.0000000000E+00   -0.1000000000E+01
    0.0000000000E+00   -0.1000000000E+01    0.0000000000E+00
   -0.1000000000E+01    0.0000000000E+00    0.0000000000E+00
    0.3779453756E+01      0.3779453756E+01      0.3779453756E+01

    0.0000000000E+00    0.0000000000E+00   -0.1000000000E+01
    0.1000000000E+01    0.0000000000E+00    0.0000000000E+00
    0.0000000000E+00   -0.1000000000E+01    0.0000000000E+00
    0.0000000000E+00      0.1678414632E-14      0.1678414632E-14

    0.0000000000E+00    0.1000000000E+01    0.0000000000E+00
    0.1000000000E+01    0.0000000000E+00    0.0000000000E+00
    0.0000000000E+00    0.0000000000E+00   -0.1000000000E+01
    0.3779453756E+01      0.3779453756E+01      0.3779453756E+01

    0.0000000000E+00    0.0000000000E+00    0.1000000000E+01
    0.1000000000E+01    0.0000000000E+00    0.0000000000E+00
    0.0000000000E+00    0.1000000000E+01    0.0000000000E+00
    0.7558907511E+01      0.7558907511E+01      0.1511781502E+02

    0.0000000000E+00   -0.1000000000E+01    0.0000000000E+00
    0.1000000000E+01    0.0000000000E+00    0.0000000000E+00
    0.0000000000E+00    0.0000000000E+00    0.1000000000E+01
    0.3779453756E+01      0.3779453756E+01      0.3779453756E+01

    0.0000000000E+00    0.0000000000E+00   -0.1000000000E+01
   -0.1000000000E+01    0.0000000000E+00    0.0000000000E+00
    0.0000000000E+00    0.1000000000E+01    0.0000000000E+00
    0.1007048779E-13      0.7558907511E+01      0.7558907511E+01

    0.0000000000E+00   -0.1000000000E+01    0.0000000000E+00
   -0.1000000000E+01    0.0000000000E+00    0.0000000000E+00
    0.0000000000E+00    0.0000000000E+00   -0.1000000000E+01
    0.3779453756E+01      0.3779453756E+01      0.3779453756E+01

    0.0000000000E+00    0.0000000000E+00    0.1000000000E+01
   -0.1000000000E+01    0.0000000000E+00    0.0000000000E+00
    0.0000000000E+00   -0.1000000000E+01    0.0000000000E+00
    0.3356829264E-14      0.7558907511E+01      0.7558907511E+01

    0.0000000000E+00    0.1000000000E+01    0.0000000000E+00
   -0.1000000000E+01    0.0000000000E+00    0.0000000000E+00
    0.0000000000E+00    0.0000000000E+00    0.1000000000E+01
    0.3779453756E+01      0.3779453756E+01      0.3779453756E+01

    0.0000000000E+00    0.1000000000E+01    0.0000000000E+00
    0.0000000000E+00    0.0000000000E+00   -0.1000000000E+01
   -0.1000000000E+01    0.0000000000E+00    0.0000000000E+00
    0.1678414632E-14      0.0000000000E+00      0.1678414632E-14

    0.1000000000E+01    0.0000000000E+00    0.0000000000E+00
    0.0000000000E+00    0.0000000000E+00   -0.1000000000E+01
    0.0000000000E+00    0.1000000000E+01    0.0000000000E+00
    0.3779453756E+01      0.3779453756E+01      0.3779453756E+01

    0.0000000000E+00   -0.1000000000E+01    0.0000000000E+00
    0.0000000000E+00    0.0000000000E+00   -0.1000000000E+01
    0.1000000000E+01    0.0000000000E+00    0.0000000000E+00
    0.7558907511E+01      0.6713658528E-14      0.7558907511E+01

   -0.1000000000E+01    0.0000000000E+00    0.0000000000E+00
    0.0000000000E+00    0.0000000000E+00   -0.1000000000E+01
    0.0000000000E+00   -0.1000000000E+01    0.0000000000E+00
    0.3779453756E+01      0.3779453756E+01      0.3779453756E+01

    0.0000000000E+00    0.1000000000E+01    0.0000000000E+00
    0.0000000000E+00    0.0000000000E+00    0.1000000000E+01
    0.1000000000E+01    0.0000000000E+00    0.0000000000E+00
    0.3356829264E-14      0.7558907511E+01      0.7558907511E+01

   -0.1000000000E+01    0.0000000000E+00    0.0000000000E+00
    0.0000000000E+00    0.0000000000E+00    0.1000000000E+01
    0.0000000000E+00    0.1000000000E+01    0.0000000000E+00
    0.3779453756E+01      0.3779453756E+01      0.3779453756E+01

    0.0000000000E+00   -0.1000000000E+01    0.0000000000E+00
    0.0000000000E+00    0.0000000000E+00    0.1000000000E+01
   -0.1000000000E+01    0.0000000000E+00    0.0000000000E+00
    0.7558907511E+01      0.5874451212E-14      0.7558907511E+01

    0.1000000000E+01    0.0000000000E+00    0.0000000000E+00
    0.0000000000E+00    0.0000000000E+00    0.1000000000E+01
    0.0000000000E+00   -0.1000000000E+01    0.0000000000E+00
    0.3779453756E+01      0.3779453756E+01      0.3779453756E+01

   -0.1000000000E+01    0.0000000000E+00    0.0000000000E+00
    0.0000000000E+00   -0.1000000000E+01    0.0000000000E+00
    0.0000000000E+00    0.0000000000E+00   -0.1000000000E+01
    0.3779453756E+01      0.3779453756E+01      0.3779453756E+01

    0.0000000000E+00    0.0000000000E+00    0.1000000000E+01
    0.0000000000E+00   -0.1000000000E+01    0.0000000000E+00
   -0.1000000000E+01    0.0000000000E+00    0.0000000000E+00
    0.7558907511E+01      0.8392073160E-14      0.7558907511E+01

    0.1000000000E+01    0.0000000000E+00    0.0000000000E+00
    0.0000000000E+00   -0.1000000000E+01    0.0000000000E+00
    0.0000000000E+00    0.0000000000E+00    0.1000000000E+01
    0.3779453756E+01      0.3779453756E+01      0.3779453756E+01

    0.0000000000E+00    0.0000000000E+00   -0.1000000000E+01
    0.0000000000E+00   -0.1000000000E+01    0.0000000000E+00
    0.1000000000E+01    0.0000000000E+00    0.0000000000E+00
    0.7558907511E+01      0.5874451212E-14      0.7558907511E+01

   -0.1000000000E+01    0.0000000000E+00    0.0000000000E+00
    0.0000000000E+00    0.1000000000E+01    0.0000000000E+00
    0.0000000000E+00    0.0000000000E+00    0.1000000000E+01
    0.3779453756E+01      0.3779453756E+01      0.3779453756E+01

    0.0000000000E+00    0.0000000000E+00   -0.1000000000E+01
    0.0000000000E+00    0.1000000000E+01    0.0000000000E+00
   -0.1000000000E+01    0.0000000000E+00    0.0000000000E+00
    0.7558907511E+01      0.7558907511E+01      0.2517621948E-14

    0.1000000000E+01    0.0000000000E+00    0.0000000000E+00
    0.0000000000E+00    0.1000000000E+01    0.0000000000E+00
    0.0000000000E+00    0.0000000000E+00   -0.1000000000E+01
    0.3779453756E+01      0.3779453756E+01      0.3779453756E+01

    0.0000000000E+00    0.0000000000E+00    0.1000000000E+01
    0.0000000000E+00    0.1000000000E+01    0.0000000000E+00
    0.1000000000E+01    0.0000000000E+00    0.0000000000E+00
    0.1678414632E-14      0.7558907511E+01      0.7558907511E+01

    0.0000000000E+00    0.0000000000E+00    0.1000000000E+01
   -0.1000000000E+01    0.0000000000E+00    0.0000000000E+00
    0.0000000000E+00    0.1000000000E+01    0.0000000000E+00
    0.3779453756E+01      0.3779453756E+01      0.3779453756E+01

    0.0000000000E+00   -0.1000000000E+01    0.0000000000E+00
   -0.1000000000E+01    0.0000000000E+00    0.0000000000E+00
    0.0000000000E+00    0.0000000000E+00    0.1000000000E+01
    0.6713658528E-14      0.6713658528E-14      0.0000000000E+00

    0.0000000000E+00    0.0000000000E+00   -0.1000000000E+01
   -0.1000000000E+01    0.0000000000E+00    0.0000000000E+00
    0.0000000000E+00   -0.1000000000E+01    0.0000000000E+00
    0.3779453756E+01      0.3779453756E+01      0.3779453756E+01

    0.0000000000E+00    0.1000000000E+01    0.0000000000E+00
   -0.1000000000E+01    0.0000000000E+00    0.0000000000E+00
    0.0000000000E+00    0.0000000000E+00   -0.1000000000E+01
    0.5035243896E-14      0.7558907511E+01      0.7558907511E+01

    0.0000000000E+00    0.0000000000E+00    0.1000000000E+01
    0.1000000000E+01    0.0000000000E+00    0.0000000000E+00
    0.0000000000E+00   -0.1000000000E+01    0.0000000000E+00
    0.3779453756E+01      0.3779453756E+01      0.3779453756E+01

    0.0000000000E+00    0.1000000000E+01    0.0000000000E+00
    0.1000000000E+01    0.0000000000E+00    0.0000000000E+00
    0.0000000000E+00    0.0000000000E+00    0.1000000000E+01
    0.7558907511E+01      0.7558907511E+01      0.0000000000E+00

    0.0000000000E+00    0.0000000000E+00   -0.1000000000E+01
    0.1000000000E+01    0.0000000000E+00    0.0000000000E+00
    0.0000000000E+00    0.1000000000E+01    0.0000000000E+00
    0.3779453756E+01      0.3779453756E+01      0.3779453756E+01

    0.0000000000E+00   -0.1000000000E+01    0.0000000000E+00
    0.1000000000E+01    0.0000000000E+00    0.0000000000E+00
    0.0000000000E+00    0.0000000000E+00   -0.1000000000E+01
    0.7558907511E+01      0.5035243896E-14      0.7558907511E+01

    0.0000000000E+00   -0.1000000000E+01    0.0000000000E+00
    0.0000000000E+00    0.0000000000E+00    0.1000000000E+01
    0.1000000000E+01    0.0000000000E+00    0.0000000000E+00
    0.3779453756E+01      0.3779453756E+01      0.3779453756E+01

   -0.1000000000E+01    0.0000000000E+00    0.0000000000E+00
    0.0000000000E+00    0.0000000000E+00    0.1000000000E+01
    0.0000000000E+00   -0.1000000000E+01    0.0000000000E+00
    0.1007048779E-13      0.7558907511E+01      0.7558907511E+01

    0.0000000000E+00    0.1000000000E+01    0.0000000000E+00
    0.0000000000E+00    0.0000000000E+00    0.1000000000E+01
   -0.1000000000E+01    0.0000000000E+00    0.0000000000E+00
    0.3779453756E+01      0.3779453756E+01      0.3779453756E+01

    0.1000000000E+01    0.0000000000E+00    0.0000000000E+00
    0.0000000000E+00    0.0000000000E+00    0.1000000000E+01
    0.0000000000E+00    0.1000000000E+01    0.0000000000E+00
    0.7558907511E+01      0.1678414632E-14      0.7558907511E+01

    0.0000000000E+00   -0.1000000000E+01    0.0000000000E+00
    0.0000000000E+00    0.0000000000E+00   -0.1000000000E+01
   -0.1000000000E+01    0.0000000000E+00    0.0000000000E+00
    0.3779453756E+01      0.3779453756E+01      0.3779453756E+01

    0.1000000000E+01    0.0000000000E+00    0.0000000000E+00
    0.0000000000E+00    0.0000000000E+00   -0.1000000000E+01
    0.0000000000E+00   -0.1000000000E+01    0.0000000000E+00
    0.7558907511E+01      0.7558907511E+01      0.2517621948E-14

    0.0000000000E+00    0.1000000000E+01    0.0000000000E+00
    0.0000000000E+00    0.0000000000E+00   -0.1000000000E+01
    0.1000000000E+01    0.0000000000E+00    0.0000000000E+00
    0.3779453756E+01      0.3779453756E+01      0.3779453756E+01

   -0.1000000000E+01    0.0000000000E+00    0.0000000000E+00
    0.0000000000E+00    0.0000000000E+00   -0.1000000000E+01
    0.0000000000E+00    0.1000000000E+01    0.0000000000E+00
    0.5874451212E-14      0.7558907511E+01      0.7558907511E+01

----------------------------------------------------------------------


siesta: ******************** Simulation parameters ****************************
siesta:
siesta: The following are some of the parameters of the simulation.
siesta: A complete list of the parameters used, including default values,
siesta: can be found in file out.fdf
siesta:
redata: Spin configuration                          = none
redata: Number of spin components                   = 1
redata: Time-Reversal Symmetry                      = T
redata: Spin-spiral                                 = F
redata: Long output                                 =   F
redata: Number of Atomic Species                    =        1
redata: Charge density info will appear in .RHO file
redata: Write Mulliken Pop.                         = NO
redata: Matel table size (NRTAB)                    =     1024
redata: Mesh Cutoff                                 =   300.0000 Ry
redata: Net charge of the system                    =     0.0000 |e|
redata: Min. number of SCF Iter                     =        0
redata: Max. number of SCF Iter                     =        0
redata: SCF mix quantity                            = Hamiltonian
redata: Mix DM or H after convergence               =   F
redata: Recompute H after scf cycle                 =   F
redata: Mix DM in first SCF step                    =   T
redata: Write Pulay info on disk                    =   F
redata: New DM Mixing Weight                        =     0.2500
redata: New DM Occupancy tolerance                  = 0.000000000001
redata: No kicks to SCF
redata: DM Mixing Weight for Kicks                  =     0.5000
redata: Require Harris convergence for SCF          =   F
redata: Harris energy tolerance for SCF             =     0.000100 eV
redata: Require DM convergence for SCF              =   T
redata: DM tolerance for SCF                        =     0.000100
redata: Require EDM convergence for SCF             =   F
redata: EDM tolerance for SCF                       =     0.001000 eV
redata: Require H convergence for SCF               =   T
redata: Hamiltonian tolerance for SCF               =     0.001000 eV
redata: Require (free) Energy convergence for SCF   =   F
redata: (free) Energy tolerance for SCF             =     0.000100 eV
redata: Using Saved Data (generic)                  =   F
redata: Use continuation files for DM               =   F
redata: Neglect nonoverlap interactions             =   F
redata: Method of Calculation                       = Diagonalization
redata: Electronic Temperature                      =   299.9869 K
redata: Fix the spin of the system                  =   F
redata: Max. number of TDED Iter                    =        1
redata: Number of TDED substeps                     =        3
redata: Dynamics option                             = Single-point calculation
mix.SCF: Pulay mixing                            = Pulay
mix.SCF:    Variant                              = stable
mix.SCF:    History steps                        = 2
mix.SCF:    Linear mixing weight                 =     0.250000
mix.SCF:    Mixing weight                        =     0.250000
mix.SCF:    SVD condition                        = 0.1000E-07
redata: ***********************************************************************

%block SCF.Mixers
  Pulay
%endblock SCF.Mixers

%block SCF.Mixer.Pulay
  # Mixing method
  method pulay
  variant stable

  # Mixing options
  weight 0.2500
  weight.linear 0.2500
  history 2
%endblock SCF.Mixer.Pulay

DM_history_depth set to one: no extrapolation allowed by default for geometry relaxation
Size of DM history Fstack: 1
Total number of electrons:    48.000000
Total ionic charge:    48.000000

* ProcessorY, Blocksize:    2  24


* Orbital distribution balance (max,min):    48    24


siesta: k-grid: Number of k-points =         1
siesta: k-point is Gamma-only

diag: Algorithm                                     = D&C
diag: Parallel over k                               =   F
diag: Use parallel 2D distribution                  =   T
diag: Parallel block-size                           = 24
diag: Parallel distribution                         =     2 x     4
diag: Used triangular part                          = Lower
diag: Absolute tolerance                            =  0.100E-15
diag: Orthogonalization factor                      =  0.100E-05
diag: Memory factor                                 =  1.0000


ts: **************************************************************
ts: Save H and S matrices                           =    F
ts: Save DM and EDM matrices                        =    F
ts: Fix Hartree potential                           =    F
ts: Only save the overlap matrix S                  =    F
ts: **************************************************************

************************ Begin: TS CHECKS AND WARNINGS ************************
************************ End: TS CHECKS AND WARNINGS **************************


                     ====================================
                        Single-point calculation
                     ====================================

outcell: Unit cell vectors (Ang):
        0.000000    4.000000    4.000000
        4.000000    0.000000    4.000000
        4.000000    4.000000    0.000000

outcell: Cell vector modules (Ang)   :    5.656854    5.656854    5.656854
outcell: Cell angles (23,13,12) (deg):     60.0000     60.0000     60.0000
outcell: Cell volume (Ang**3)        :    128.0000
siesta: WARNING: Atoms     1    34 too close: rij =    0.226274 Ang
siesta: WARNING: Atoms     2    43 too close: rij =    0.226274 Ang
siesta: WARNING: Atoms     3    20 too close: rij =    0.226274 Ang
siesta: WARNING: Atoms     4    39 too close: rij =    0.226274 Ang
siesta: WARNING: Atoms     5    14 too close: rij =    0.226274 Ang
siesta: WARNING: Atoms     6    13 too close: rij =    0.226274 Ang
siesta: WARNING: Atoms     7    47 too close: rij =    0.226274 Ang
siesta: WARNING: Atoms     8    31 too close: rij =    0.226274 Ang
siesta: WARNING: Atoms     9    46 too close: rij =    0.226274 Ang
siesta: WARNING: Atoms    10    26 too close: rij =    0.226274 Ang
siesta: WARNING: Atoms    11    25 too close: rij =    0.226274 Ang
siesta: WARNING: Atoms    12    37 too close: rij =    0.226274 Ang
siesta: WARNING: Atoms    14    18 too close: rij =    0.452548 Ang
siesta: WARNING: Atoms    15    45 too close: rij =    0.226274 Ang
siesta: WARNING: Atoms    16    32 too close: rij =    0.226274 Ang
siesta: WARNING: Atoms    17    19 too close: rij =    0.226274 Ang
siesta: WARNING: Atoms    18    44 too close: rij =    0.226274 Ang
siesta: WARNING: Atoms    19    35 too close: rij =    0.452548 Ang
siesta: WARNING: Atoms    20    44 too close: rij =    0.524595 Ang
siesta: WARNING: Atoms    21    42 too close: rij =    0.226274 Ang
siesta: WARNING: Atoms    22    48 too close: rij =    0.226274 Ang
siesta: WARNING: Atoms    23    40 too close: rij =    0.226274 Ang
siesta: WARNING: Atoms    24    33 too close: rij =    0.226274 Ang
siesta: WARNING: Atoms    26    48 too close: rij =    0.524595 Ang
siesta: WARNING: Atoms    27    38 too close: rij =    0.226274 Ang
siesta: WARNING: Atoms    28    35 too close: rij =    0.226274 Ang
siesta: WARNING: Atoms    29    30 too close: rij =    0.226274 Ang
siesta: WARNING: Atoms    30    44 too close: rij =    0.452548 Ang
siesta: WARNING: Atoms    31    32 too close: rij =    0.524595 Ang
siesta: WARNING: Atoms    32    36 too close: rij =    0.452548 Ang
siesta: WARNING: Atoms    35    42 too close: rij =    0.524595 Ang
siesta: WARNING: Atoms    36    41 too close: rij =    0.226274 Ang
siesta: WARNING: Atoms    37    41 too close: rij =    0.524595 Ang
siesta: WARNING: Atoms    39    40 too close: rij =    0.524595 Ang
Gamma-point calculation with interaction between periodic images
Some features might not work optimally:
e.g. DM initialization from atomic data
<dSpData1D:S at geom step 0
  <sparsity:sparsity for geom step 0
    nrows_g=240 nrows=48 sparsity=.2000 nnzs=11520, refcount: 7>
  <dData1D:(new from dSpData1D) n=11520, refcount: 1>
refcount: 1>
new_DM -- step:     1
Initializing Density Matrix...
DM filled with atomic data:
<dSpData2D:DM initialized from atoms
  <sparsity:sparsity for geom step 0
    nrows_g=240 nrows=48 sparsity=.2000 nnzs=11520, refcount: 8>
  <dData2D:DM n=11520 m=1, refcount: 1>
refcount: 1>
No. of atoms with KB's overlaping orbs in proc 0. Max # of overlaps:      48     352
New grid distribution:   1
           1       1:   25    1:   13    1:    7
           2       1:   25    1:   13    8:   13
           3       1:   25    1:   13   14:   19
           4       1:   25    1:   13   20:   25
           5       1:   25   14:   25    1:    7
           6       1:   25   14:   25    8:   13
           7       1:   25   14:   25   14:   19
           8       1:   25   14:   25   20:   25

InitMesh: MESH =    50 x    50 x    50 =      125000
InitMesh: (bp) =    25 x    25 x    25 =       15625
InitMesh: Mesh cutoff (required, used) =   300.000   323.879 Ry
ExtMesh (bp) on 0 =    81 x    69 x    63 =      352107
New grid distribution:   2
           1      11:   25    1:   10    1:   10
           2       1:   11    1:   10   11:   25
           3       1:   10   11:   25   11:   25
           4      12:   25    1:   10   11:   25
           5      12:   25   11:   25    1:   10
           6       1:   11   11:   25    1:   10
           7      11:   25   11:   25   11:   25
           8       1:   10    1:   10    1:   10
New grid distribution:   3
           1       1:   12   13:   25    1:   12
           2       1:   12    1:   12   13:   25
           3      13:   25    1:   12   13:   25
           4       1:   12   13:   25   13:   25
           5      13:   25   13:   25    1:   12
           6      13:   25    1:   12    1:   12
           7      13:   25   13:   25   13:   25
           8       1:   12    1:   12    1:   12
Setting up quadratic distribution...
ExtMesh (bp) on 0 =    71 x    66 x    66 =      309276
PhiOnMesh: Number of (b)points on node 0 =                 1500
PhiOnMesh: nlist on node 0 =               226786
SCF_NOT_CONV: SCF did not converge  in maximum number of steps.
Geom step, scf iteration, dmax:    0     0     0.000000

Using DM_out to compute the final energy and forces
No. of atoms with KB's overlaping orbs in proc 0. Max # of overlaps:      48     352

siesta: E_KS(eV) =              170.6922
change in fa due to symmetrization =     0.48353944848145147262E-07    0.10442663977983102086E-06   -0.21361503232952827602E-07
change in fa due to symmetrization =     0.21361426183474918616E-07   -0.10442683961997545339E-06    0.48353696158187631227E-07
change in fa due to symmetrization =    -0.48353932413647271460E-07    0.10442666020793467396E-06    0.21361482138715359724E-07
change in fa due to symmetrization =    -0.21361425073251893991E-07   -0.10442675968391768038E-06   -0.48353779646959083038E-07
change in fa due to symmetrization =     0.48353903991937841056E-07   -0.10442663800347418146E-06    0.21361515223361493554E-07
change in fa due to symmetrization =     0.21361437063660559943E-07    0.10442682807365599729E-06   -0.48353715698112864629E-07
change in fa due to symmetrization =     0.48353944848145147262E-07    0.10442663977983102086E-06   -0.21361503232952827602E-07
change in fa due to symmetrization =     0.21361426183474918616E-07   -0.10442683961997545339E-06    0.48353696158187631227E-07
change in fa due to symmetrization =    -0.48353932413647271460E-07    0.10442666020793467396E-06    0.21361482138715359724E-07
change in fa due to symmetrization =    -0.21361425073251893991E-07   -0.10442675968391768038E-06   -0.48353779646959083038E-07
change in fa due to symmetrization =     0.48353903991937841056E-07   -0.10442663800347418146E-06    0.21361515223361493554E-07
change in fa due to symmetrization =     0.48353944848145147262E-07    0.10442663977983102086E-06   -0.21361503232952827602E-07
change in fa due to symmetrization =     0.21361426183474918616E-07   -0.10442683961997545339E-06    0.48353696158187631227E-07
change in fa due to symmetrization =    -0.48353932413647271460E-07    0.10442666020793467396E-06    0.21361482138715359724E-07
change in fa due to symmetrization =    -0.21361425073251893991E-07   -0.10442675968391768038E-06   -0.48353779646959083038E-07
change in fa due to symmetrization =     0.48353903991937841056E-07   -0.10442663800347418146E-06    0.21361515223361493554E-07
change in fa due to symmetrization =     0.21361437063660559943E-07    0.10442682807365599729E-06   -0.48353715698112864629E-07
change in fa due to symmetrization =    -0.48353889781083125854E-07   -0.10442667086607571036E-06   -0.21361507229755716253E-07
change in fa due to symmetrization =    -0.21361429514143992492E-07    0.10442681475097970178E-06    0.48353705039971828228E-07
change in fa due to symmetrization =     0.48353944848145147262E-07    0.10442663977983102086E-06   -0.21361503232952827602E-07
change in fa due to symmetrization =     0.48353944848145147262E-07    0.10442663977983102086E-06   -0.21361503232952827602E-07
change in fa due to symmetrization =     0.21361426183474918616E-07   -0.10442683961997545339E-06    0.48353696158187631227E-07
change in fa due to symmetrization =    -0.48353932413647271460E-07    0.10442666020793467396E-06    0.21361482138715359724E-07
change in fa due to symmetrization =    -0.21361425073251893991E-07   -0.10442675968391768038E-06   -0.48353779646959083038E-07
change in fa due to symmetrization =     0.48353903991937841056E-07   -0.10442663800347418146E-06    0.21361515223361493554E-07
change in fa due to symmetrization =     0.21361437063660559943E-07    0.10442682807365599729E-06   -0.48353715698112864629E-07
change in fa due to symmetrization =    -0.48353889781083125854E-07   -0.10442667086607571036E-06   -0.21361507229755716253E-07
change in fa due to symmetrization =    -0.21361429514143992492E-07    0.10442681475097970178E-06    0.48353705039971828228E-07
change in fa due to symmetrization =     0.10442690978607060970E-06    0.21361217683590894012E-07   -0.48353815174095871043E-07
change in fa due to symmetrization =     0.48353944848145147262E-07    0.10442663977983102086E-06   -0.21361503232952827602E-07
change in fa due to symmetrization =     0.21361426183474918616E-07   -0.10442683961997545339E-06    0.48353696158187631227E-07
change in fa due to symmetrization =    -0.48353932413647271460E-07    0.10442666020793467396E-06    0.21361482138715359724E-07
change in fa due to symmetrization =    -0.21361425073251893991E-07   -0.10442675968391768038E-06   -0.48353779646959083038E-07
change in fa due to symmetrization =     0.48353903991937841056E-07   -0.10442663800347418146E-06    0.21361515223361493554E-07
change in fa due to symmetrization =     0.21361437063660559943E-07    0.10442682807365599729E-06   -0.48353715698112864629E-07
change in fa due to symmetrization =    -0.48353889781083125854E-07   -0.10442667086607571036E-06   -0.21361507229755716253E-07
change in fa due to symmetrization =     0.48353944848145147262E-07    0.10442663977983102086E-06   -0.21361503232952827602E-07
change in fa due to symmetrization =     0.21361426183474918616E-07   -0.10442683961997545339E-06    0.48353696158187631227E-07
change in fa due to symmetrization =    -0.48353932413647271460E-07    0.10442666020793467396E-06    0.21361482138715359724E-07
change in fa due to symmetrization =    -0.21361425073251893991E-07   -0.10442675968391768038E-06   -0.48353779646959083038E-07
change in fa due to symmetrization =     0.48353903991937841056E-07   -0.10442663800347418146E-06    0.21361515223361493554E-07
change in fa due to symmetrization =     0.21361437063660559943E-07    0.10442682807365599729E-06   -0.48353715698112864629E-07
change in fa due to symmetrization =    -0.48353889781083125854E-07   -0.10442667086607571036E-06   -0.21361507229755716253E-07
change in fa due to symmetrization =    -0.21361429514143992492E-07    0.10442681475097970178E-06    0.48353705039971828228E-07
change in fa due to symmetrization =     0.10442690978607060970E-06    0.21361217683590894012E-07   -0.48353815174095871043E-07
change in fa due to symmetrization =    -0.10442705455915302082E-06   -0.48353657078337164421E-07   -0.21361165725153341555E-07
change in fa due to symmetrization =     0.10442686448897120499E-06   -0.21361238333739152040E-07    0.48353877346585250052E-07
change in fa due to symmetrization =    -0.10442706699365089662E-06    0.48353635762055091618E-07    0.21361175051026748406E-07
change in fa due to symmetrization =    -0.10442692222056848550E-06   -0.21361243884854275166E-07   -0.48353777870602243638E-07
change in fa due to symmetrization =     0.10442690978607060970E-06    0.21361217683590894012E-07   -0.48353815174095871043E-07
change in fa due to symmetrization =    -0.10442705455915302082E-06   -0.48353657078337164421E-07   -0.21361165725153341555E-07
change in fa due to symmetrization =     0.10442686448897120499E-06   -0.21361238333739152040E-07    0.48353877346585250052E-07
change in fa due to symmetrization =    -0.10442706699365089662E-06    0.48353635762055091618E-07    0.21361175051026748406E-07
change in fa due to symmetrization =    -0.10442692222056848550E-06   -0.21361243884854275166E-07   -0.48353777870602243638E-07
change in fa due to symmetrization =     0.10442704834190408292E-06    0.48353605563988821814E-07   -0.21361173052625304081E-07
change in fa due to symmetrization =    -0.10442687514711224139E-06    0.21361252988683077092E-07    0.48353802739597995242E-07
change in fa due to symmetrization =    -0.10442705455915302082E-06   -0.48353657078337164421E-07   -0.21361165725153341555E-07
change in fa due to symmetrization =     0.10442686448897120499E-06   -0.21361238333739152040E-07    0.48353877346585250052E-07
change in fa due to symmetrization =    -0.10442706699365089662E-06    0.48353635762055091618E-07    0.21361175051026748406E-07
change in fa due to symmetrization =    -0.10442692222056848550E-06   -0.21361243884854275166E-07   -0.48353777870602243638E-07
change in fa due to symmetrization =     0.10442704834190408292E-06    0.48353605563988821814E-07   -0.21361173052625304081E-07
change in fa due to symmetrization =    -0.10442687514711224139E-06    0.21361252988683077092E-07    0.48353802739597995242E-07
change in fa due to symmetrization =     0.10442705278279618142E-06   -0.48353655301980325021E-07    0.21361177937606612431E-07
change in fa due to symmetrization =    -0.21361429514143992492E-07    0.10442681475097970178E-06    0.48353705039971828228E-07
change in fa due to symmetrization =     0.10442690978607060970E-06    0.21361217683590894012E-07   -0.48353815174095871043E-07
change in fa due to symmetrization =    -0.10442705455915302082E-06   -0.48353657078337164421E-07   -0.21361165725153341555E-07
change in fa due to symmetrization =     0.10442686448897120499E-06   -0.21361238333739152040E-07    0.48353877346585250052E-07
change in fa due to symmetrization =    -0.48353889781083125854E-07   -0.10442667086607571036E-06   -0.21361507229755716253E-07
change in fa due to symmetrization =    -0.21361429514143992492E-07    0.10442681475097970178E-06    0.48353705039971828228E-07
change in fa due to symmetrization =     0.10442690978607060970E-06    0.21361217683590894012E-07   -0.48353815174095871043E-07
change in fa due to symmetrization =    -0.10442705455915302082E-06   -0.48353657078337164421E-07   -0.21361165725153341555E-07
change in fa due to symmetrization =     0.10442686448897120499E-06   -0.21361238333739152040E-07    0.48353877346585250052E-07
change in fa due to symmetrization =    -0.10442706699365089662E-06    0.48353635762055091618E-07    0.21361175051026748406E-07
change in fa due to symmetrization =     0.21361437063660559943E-07    0.10442682807365599729E-06   -0.48353715698112864629E-07
change in fa due to symmetrization =    -0.48353889781083125854E-07   -0.10442667086607571036E-06   -0.21361507229755716253E-07
change in fa due to symmetrization =    -0.21361429514143992492E-07    0.10442681475097970178E-06    0.48353705039971828228E-07
change in fa due to symmetrization =     0.10442690978607060970E-06    0.21361217683590894012E-07   -0.48353815174095871043E-07
change in fa due to symmetrization =    -0.10442705455915302082E-06   -0.48353657078337164421E-07   -0.21361165725153341555E-07
change in fa due to symmetrization =     0.10442686448897120499E-06   -0.21361238333739152040E-07    0.48353877346585250052E-07
change in fa due to symmetrization =    -0.10442706699365089662E-06    0.48353635762055091618E-07    0.21361175051026748406E-07
change in fa due to symmetrization =    -0.10442692222056848550E-06   -0.21361243884854275166E-07   -0.48353777870602243638E-07
change in fa due to symmetrization =     0.10442704834190408292E-06    0.48353605563988821814E-07   -0.21361173052625304081E-07
change in fa due to symmetrization =    -0.10442687514711224139E-06    0.21361252988683077092E-07    0.48353802739597995242E-07
change in fa due to symmetrization =     0.10442704834190408292E-06    0.48353605563988821814E-07   -0.21361173052625304081E-07
change in fa due to symmetrization =     0.10442705278279618142E-06   -0.48353655301980325021E-07    0.21361177937606612431E-07
change in fa due to symmetrization =     0.21361284963106186296E-07    0.48353614445773018815E-07   -0.10442699771573416001E-06
change in fa due to symmetrization =    -0.48353935966360950260E-07    0.21361401758568376863E-07    0.10442672415678089237E-06
change in fa due to symmetrization =    -0.10442706699365089662E-06    0.48353635762055091618E-07    0.21361175051026748406E-07
change in fa due to symmetrization =    -0.10442692222056848550E-06   -0.21361243884854275166E-07   -0.48353777870602243638E-07
change in fa due to symmetrization =     0.10442704834190408292E-06    0.48353605563988821814E-07   -0.21361173052625304081E-07
change in fa due to symmetrization =    -0.10442687514711224139E-06    0.21361252988683077092E-07    0.48353802739597995242E-07
change in fa due to symmetrization =     0.10442705278279618142E-06   -0.48353655301980325021E-07    0.21361177937606612431E-07
change in fa due to symmetrization =     0.21361284963106186296E-07    0.48353614445773018815E-07   -0.10442699771573416001E-06
change in fa due to symmetrization =    -0.48353935966360950260E-07    0.21361401758568376863E-07    0.10442672415678089237E-06
change in fa due to symmetrization =    -0.10442687514711224139E-06    0.21361252988683077092E-07    0.48353802739597995242E-07
change in fa due to symmetrization =     0.10442705278279618142E-06   -0.48353655301980325021E-07    0.21361177937606612431E-07
change in fa due to symmetrization =     0.21361284963106186296E-07    0.48353614445773018815E-07   -0.10442699771573416001E-06
change in fa due to symmetrization =    -0.48353935966360950260E-07    0.21361401758568376863E-07    0.10442672415678089237E-06
change in fa due to symmetrization =    -0.21361272084519100645E-07   -0.48353573589565712609E-07   -0.10442702524926517071E-06
change in fa due to symmetrization =     0.48353955506286183663E-07   -0.21361410640352573864E-07    0.10442667885968148767E-06
change in fa due to symmetrization =    -0.21361281188347902571E-07    0.48353667736478200823E-07    0.10442695508317001440E-06
change in fa due to symmetrization =     0.48353959058999862464E-07    0.21361412194664808339E-07   -0.10442672060406721357E-06
change in fa due to symmetrization =     0.21361251434370842617E-07   -0.48353633985698252218E-07    0.10442701192658887521E-06
change in fa due to symmetrization =    -0.48354015902418723272E-07   -0.21361403534925216263E-07   -0.10442663800347418146E-06
change in fa due to symmetrization =     0.48353637538411931018E-07    0.10442705633550986022E-06   -0.21361178603740427207E-07
change in fa due to symmetrization =     0.21361261426378064243E-07   -0.10442686626532804439E-06    0.48353820503166389244E-07
change in fa due to symmetrization =    -0.21361272084519100645E-07   -0.48353573589565712609E-07   -0.10442702524926517071E-06
change in fa due to symmetrization =     0.48353955506286183663E-07   -0.21361410640352573864E-07    0.10442667885968148767E-06
change in fa due to symmetrization =    -0.21361281188347902571E-07    0.48353667736478200823E-07    0.10442695508317001440E-06
change in fa due to symmetrization =     0.48353959058999862464E-07    0.21361412194664808339E-07   -0.10442672060406721357E-06
change in fa due to symmetrization =     0.21361251434370842617E-07   -0.48353633985698252218E-07    0.10442701192658887521E-06
change in fa due to symmetrization =    -0.48354015902418723272E-07   -0.21361403534925216263E-07   -0.10442663800347418146E-06
change in fa due to symmetrization =     0.48353637538411931018E-07    0.10442705633550986022E-06   -0.21361178603740427207E-07
change in fa due to symmetrization =     0.21361261426378064243E-07   -0.10442686626532804439E-06    0.48353820503166389244E-07
change in fa due to symmetrization =    -0.10442692222056848550E-06   -0.21361243884854275166E-07   -0.48353777870602243638E-07
change in fa due to symmetrization =     0.10442704834190408292E-06    0.48353605563988821814E-07   -0.21361173052625304081E-07
change in fa due to symmetrization =    -0.10442687514711224139E-06    0.21361252988683077092E-07    0.48353802739597995242E-07
change in fa due to symmetrization =     0.10442705278279618142E-06   -0.48353655301980325021E-07    0.21361177937606612431E-07
change in fa due to symmetrization =     0.21361284963106186296E-07    0.48353614445773018815E-07   -0.10442699771573416001E-06
change in fa due to symmetrization =    -0.48353935966360950260E-07    0.21361401758568376863E-07    0.10442672415678089237E-06
change in fa due to symmetrization =    -0.21361272084519100645E-07   -0.48353573589565712609E-07   -0.10442702524926517071E-06
change in fa due to symmetrization =     0.48353955506286183663E-07   -0.21361410640352573864E-07    0.10442667885968148767E-06
change in fa due to symmetrization =    -0.21361272084519100645E-07   -0.48353573589565712609E-07   -0.10442702524926517071E-06
change in fa due to symmetrization =     0.48353955506286183663E-07   -0.21361410640352573864E-07    0.10442667885968148767E-06
change in fa due to symmetrization =    -0.21361281188347902571E-07    0.48353667736478200823E-07    0.10442695508317001440E-06
change in fa due to symmetrization =     0.48353959058999862464E-07    0.21361412194664808339E-07   -0.10442672060406721357E-06
change in fa due to symmetrization =     0.21361251434370842617E-07   -0.48353633985698252218E-07    0.10442701192658887521E-06
change in fa due to symmetrization =    -0.48354015902418723272E-07   -0.21361403534925216263E-07   -0.10442663800347418146E-06
change in fa due to symmetrization =     0.48353637538411931018E-07    0.10442705633550986022E-06   -0.21361178603740427207E-07
change in fa due to symmetrization =     0.21361261426378064243E-07   -0.10442686626532804439E-06    0.48353820503166389244E-07
change in fa due to symmetrization =    -0.48353644643839288619E-07    0.10442705455915302082E-06    0.21361178159651217356E-07
change in fa due to symmetrization =    -0.21361251656415447542E-07   -0.10442691600331954760E-06   -0.48353804515954834642E-07
change in fa due to symmetrization =     0.10442705278279618142E-06   -0.48353655301980325021E-07    0.21361177937606612431E-07
change in fa due to symmetrization =     0.21361284963106186296E-07    0.48353614445773018815E-07   -0.10442699771573416001E-06
change in fa due to symmetrization =    -0.48353935966360950260E-07    0.21361401758568376863E-07    0.10442672415678089237E-06
change in fa due to symmetrization =    -0.21361272084519100645E-07   -0.48353573589565712609E-07   -0.10442702524926517071E-06
change in fa due to symmetrization =     0.48353955506286183663E-07   -0.21361410640352573864E-07    0.10442667885968148767E-06
change in fa due to symmetrization =    -0.21361281188347902571E-07    0.48353667736478200823E-07    0.10442695508317001440E-06
change in fa due to symmetrization =     0.48353959058999862464E-07    0.21361412194664808339E-07   -0.10442672060406721357E-06
change in fa due to symmetrization =     0.21361251434370842617E-07   -0.48353633985698252218E-07    0.10442701192658887521E-06
change in fa due to symmetrization =    -0.48354015902418723272E-07   -0.21361403534925216263E-07   -0.10442663800347418146E-06
change in fa due to symmetrization =     0.48353637538411931018E-07    0.10442705633550986022E-06   -0.21361178603740427207E-07
change in fa due to symmetrization =     0.21361261426378064243E-07   -0.10442686626532804439E-06    0.48353820503166389244E-07
change in fa due to symmetrization =    -0.48353644643839288619E-07    0.10442705455915302082E-06    0.21361178159651217356E-07
change in fa due to symmetrization =    -0.21361251656415447542E-07   -0.10442691600331954760E-06   -0.48353804515954834642E-07
change in fa due to symmetrization =     0.48353651749266646220E-07   -0.10442706521729405722E-06    0.21361172830580699156E-07
change in fa due to symmetrization =    -0.48353644643839288619E-07    0.10442705455915302082E-06    0.21361178159651217356E-07
change in fa due to symmetrization =    -0.21361251656415447542E-07   -0.10442691600331954760E-06   -0.48353804515954834642E-07
change in fa due to symmetrization =     0.48353651749266646220E-07   -0.10442706521729405722E-06    0.21361172830580699156E-07
change in fa due to symmetrization =     0.21361219904036943262E-07    0.10442690800971377030E-06   -0.48353834714021104446E-07
change in fa due to symmetrization =    -0.48353639314768770419E-07   -0.10442704923008250262E-06   -0.21361164836974921855E-07
change in fa due to symmetrization =    -0.21361239888051386515E-07    0.10442684850175965039E-06    0.48353895110153644055E-07
change in fa due to symmetrization =    -0.48353644643839288619E-07    0.10442705455915302082E-06    0.21361178159651217356E-07
change in fa due to symmetrization =    -0.21361251656415447542E-07   -0.10442691600331954760E-06   -0.48353804515954834642E-07
change in fa due to symmetrization =     0.21361219904036943262E-07    0.10442690800971377030E-06   -0.48353834714021104446E-07
change in fa due to symmetrization =    -0.48353639314768770419E-07   -0.10442704923008250262E-06   -0.21361164836974921855E-07
change in fa due to symmetrization =    -0.21361239888051386515E-07    0.10442684850175965039E-06    0.48353895110153644055E-07
change in fa due to symmetrization =     0.10442681475097970178E-06    0.21361440172285028893E-07   -0.48353721027183382830E-07
change in fa due to symmetrization =     0.48353651749266646220E-07   -0.10442706521729405722E-06    0.21361172830580699156E-07
change in fa due to symmetrization =     0.21361219904036943262E-07    0.10442690800971377030E-06   -0.48353834714021104446E-07
change in fa due to symmetrization =    -0.48353639314768770419E-07   -0.10442704923008250262E-06   -0.21361164836974921855E-07
change in fa due to symmetrization =     0.21361426183474918616E-07   -0.10442683961997545339E-06    0.48353696158187631227E-07
change in fa due to symmetrization =    -0.48353932413647271460E-07    0.10442666020793467396E-06    0.21361482138715359724E-07
change in fa due to symmetrization =    -0.21361425073251893991E-07   -0.10442675968391768038E-06   -0.48353779646959083038E-07
change in fa due to symmetrization =     0.48353903991937841056E-07   -0.10442663800347418146E-06    0.21361515223361493554E-07
change in fa due to symmetrization =     0.21361437063660559943E-07    0.10442682807365599729E-06   -0.48353715698112864629E-07
change in fa due to symmetrization =    -0.48353889781083125854E-07   -0.10442667086607571036E-06   -0.21361507229755716253E-07
change in fa due to symmetrization =    -0.21361429514143992492E-07    0.10442681475097970178E-06    0.48353705039971828228E-07
change in fa due to symmetrization =     0.10442690978607060970E-06    0.21361217683590894012E-07   -0.48353815174095871043E-07
change in fa due to symmetrization =    -0.21361281188347902571E-07    0.48353667736478200823E-07    0.10442695508317001440E-06
change in fa due to symmetrization =     0.48353959058999862464E-07    0.21361412194664808339E-07   -0.10442672060406721357E-06
change in fa due to symmetrization =     0.21361251434370842617E-07   -0.48353633985698252218E-07    0.10442701192658887521E-06
change in fa due to symmetrization =    -0.48354015902418723272E-07   -0.21361403534925216263E-07   -0.10442663800347418146E-06
change in fa due to symmetrization =     0.48353637538411931018E-07    0.10442705633550986022E-06   -0.21361178603740427207E-07
change in fa due to symmetrization =     0.21361261426378064243E-07   -0.10442686626532804439E-06    0.48353820503166389244E-07
change in fa due to symmetrization =    -0.48353644643839288619E-07    0.10442705455915302082E-06    0.21361178159651217356E-07

siesta: E_KS - E_eggbox =       170.6922
change in fa due to symmetrization =    -0.10442666464882677246E-06   -0.48353884452012607653E-07   -0.21361509006112555653E-07
change in fa due to symmetrization =     0.10442679254651920928E-06   -0.21361435065259115618E-07    0.48353731685324419232E-07
change in fa due to symmetrization =    -0.10442664066800944056E-06    0.48353902215581001656E-07    0.21361513669049259079E-07
change in fa due to symmetrization =    -0.21361239888051386515E-07    0.10442684850175965039E-06    0.48353895110153644055E-07
change in fa due to symmetrization =     0.10442681475097970178E-06    0.21361440172285028893E-07   -0.48353721027183382830E-07
change in fa due to symmetrization =    -0.10442666464882677246E-06   -0.48353884452012607653E-07   -0.21361509006112555653E-07
change in fa due to symmetrization =    -0.10442705455915302082E-06   -0.48353657078337164421E-07   -0.21361165725153341555E-07
change in fa due to symmetrization =     0.10442686448897120499E-06   -0.21361238333739152040E-07    0.48353877346585250052E-07
change in fa due to symmetrization =    -0.10442706699365089662E-06    0.48353635762055091618E-07    0.21361175051026748406E-07
change in fa due to symmetrization =    -0.21361251656415447542E-07   -0.10442691600331954760E-06   -0.48353804515954834642E-07
change in fa due to symmetrization =     0.48353651749266646220E-07   -0.10442706521729405722E-06    0.21361172830580699156E-07
change in fa due to symmetrization =     0.21361219904036943262E-07    0.10442690800971377030E-06   -0.48353834714021104446E-07
change in fa due to symmetrization =    -0.48353639314768770419E-07   -0.10442704923008250262E-06   -0.21361164836974921855E-07
change in fa due to symmetrization =    -0.21361239888051386515E-07    0.10442684850175965039E-06    0.48353895110153644055E-07
change in fa due to symmetrization =     0.48353651749266646220E-07   -0.10442706521729405722E-06    0.21361172830580699156E-07
change in fa due to symmetrization =     0.10442681475097970178E-06    0.21361440172285028893E-07   -0.48353721027183382830E-07
change in fa due to symmetrization =    -0.10442666464882677246E-06   -0.48353884452012607653E-07   -0.21361509006112555653E-07
change in fa due to symmetrization =     0.10442679254651920928E-06   -0.21361435065259115618E-07    0.48353731685324419232E-07
change in fa due to symmetrization =    -0.10442664066800944056E-06    0.48353902215581001656E-07    0.21361513669049259079E-07
change in fa due to symmetrization =    -0.10442675968391768038E-06   -0.21361437729794374718E-07   -0.48353799186884316441E-07
change in fa due to symmetrization =     0.10442664333254469966E-06    0.48353960835356701864E-07   -0.21361506341577296553E-07
change in fa due to symmetrization =    -0.10442683162636967609E-06    0.21361432400723856517E-07    0.48353719250826543430E-07
change in fa due to symmetrization =     0.10442666020793467396E-06   -0.48353930637290432060E-07    0.21361481028492335099E-07
change in fa due to symmetrization =     0.21361403312880611338E-07    0.48353944848145147262E-07   -0.10442673126220824997E-06
change in fa due to symmetrization =    -0.48353610893059340015E-07    0.21361246993478744116E-07    0.10442701814383781311E-06
change in fa due to symmetrization =    -0.21361401092434562088E-07   -0.48353989257066132268E-07   -0.10442665576704257546E-06
change in fa due to symmetrization =     0.48353674841905558424E-07   -0.21361278523812643471E-07    0.10442696218859737201E-06
change in fa due to symmetrization =     0.48353944848145147262E-07    0.10442663977983102086E-06   -0.21361503232952827602E-07
change in fa due to symmetrization =     0.21361426183474918616E-07   -0.10442683961997545339E-06    0.48353696158187631227E-07
change in fa due to symmetrization =    -0.48353932413647271460E-07    0.10442666020793467396E-06    0.21361482138715359724E-07
change in fa due to symmetrization =    -0.21361425073251893991E-07   -0.10442675968391768038E-06   -0.48353779646959083038E-07
change in fa due to symmetrization =     0.48353903991937841056E-07   -0.10442663800347418146E-06    0.21361515223361493554E-07
change in fa due to symmetrization =     0.21361437063660559943E-07    0.10442682807365599729E-06   -0.48353715698112864629E-07
change in fa due to symmetrization =    -0.48353889781083125854E-07   -0.10442667086607571036E-06   -0.21361507229755716253E-07
change in fa due to symmetrization =    -0.21361429514143992492E-07    0.10442681475097970178E-06    0.48353705039971828228E-07
change in fa due to symmetrization =     0.10442690978607060970E-06    0.21361217683590894012E-07   -0.48353815174095871043E-07
change in fa due to symmetrization =    -0.10442675968391768038E-06   -0.21361437729794374718E-07   -0.48353799186884316441E-07
change in fa due to symmetrization =     0.10442664333254469966E-06    0.48353960835356701864E-07   -0.21361506341577296553E-07
change in fa due to symmetrization =    -0.10442683162636967609E-06    0.21361432400723856517E-07    0.48353719250826543430E-07
change in fa due to symmetrization =     0.10442666020793467396E-06   -0.48353930637290432060E-07    0.21361481028492335099E-07
change in fa due to symmetrization =     0.21361403312880611338E-07    0.48353944848145147262E-07   -0.10442673126220824997E-06
change in fa due to symmetrization =     0.10442679254651920928E-06   -0.21361435065259115618E-07    0.48353731685324419232E-07
change in fa due to symmetrization =    -0.10442664066800944056E-06    0.48353902215581001656E-07    0.21361513669049259079E-07
change in fa due to symmetrization =    -0.10442675968391768038E-06   -0.21361437729794374718E-07   -0.48353799186884316441E-07
change in fa due to symmetrization =     0.10442664333254469966E-06    0.48353960835356701864E-07   -0.21361506341577296553E-07
change in fa due to symmetrization =    -0.10442683162636967609E-06    0.21361432400723856517E-07    0.48353719250826543430E-07
change in fa due to symmetrization =     0.10442666020793467396E-06   -0.48353930637290432060E-07    0.21361481028492335099E-07
change in fa due to symmetrization =     0.21361403312880611338E-07    0.48353944848145147262E-07   -0.10442673126220824997E-06
change in fa due to symmetrization =    -0.48353610893059340015E-07    0.21361246993478744116E-07    0.10442701814383781311E-06
change in fa due to symmetrization =    -0.21361401092434562088E-07   -0.48353989257066132268E-07   -0.10442665576704257546E-06
change in fa due to symmetrization =     0.21361284963106186296E-07    0.48353614445773018815E-07   -0.10442699771573416001E-06
change in fa due to symmetrization =    -0.48353935966360950260E-07    0.21361401758568376863E-07    0.10442672415678089237E-06
change in fa due to symmetrization =    -0.21361272084519100645E-07   -0.48353573589565712609E-07   -0.10442702524926517071E-06
change in fa due to symmetrization =     0.48353955506286183663E-07   -0.21361410640352573864E-07    0.10442667885968148767E-06
change in fa due to symmetrization =    -0.21361281188347902571E-07    0.48353667736478200823E-07    0.10442695508317001440E-06
change in fa due to symmetrization =     0.48353959058999862464E-07    0.21361412194664808339E-07   -0.10442672060406721357E-06
change in fa due to symmetrization =     0.21361251434370842617E-07   -0.48353633985698252218E-07    0.10442701192658887521E-06
change in fa due to symmetrization =    -0.48354015902418723272E-07   -0.21361403534925216263E-07   -0.10442663800347418146E-06
change in fa due to symmetrization =     0.48353637538411931018E-07    0.10442705633550986022E-06   -0.21361178603740427207E-07
change in fa due to symmetrization =     0.21361261426378064243E-07   -0.10442686626532804439E-06    0.48353820503166389244E-07
change in fa due to symmetrization =    -0.10442692222056848550E-06   -0.21361243884854275166E-07   -0.48353777870602243638E-07
change in fa due to symmetrization =     0.10442681475097970178E-06    0.21361440172285028893E-07   -0.48353721027183382830E-07
change in fa due to symmetrization =    -0.10442666464882677246E-06   -0.48353884452012607653E-07   -0.21361509006112555653E-07
change in fa due to symmetrization =     0.10442679254651920928E-06   -0.21361435065259115618E-07    0.48353731685324419232E-07
change in fa due to symmetrization =    -0.10442664066800944056E-06    0.48353902215581001656E-07    0.21361513669049259079E-07
change in fa due to symmetrization =    -0.10442675968391768038E-06   -0.21361437729794374718E-07   -0.48353799186884316441E-07
change in fa due to symmetrization =     0.10442664333254469966E-06    0.48353960835356701864E-07   -0.21361506341577296553E-07
change in fa due to symmetrization =    -0.10442683162636967609E-06    0.21361432400723856517E-07    0.48353719250826543430E-07
change in fa due to symmetrization =     0.10442666020793467396E-06   -0.48353930637290432060E-07    0.21361481028492335099E-07
change in fa due to symmetrization =     0.21361403312880611338E-07    0.48353944848145147262E-07   -0.10442673126220824997E-06
change in fa due to symmetrization =    -0.48353610893059340015E-07    0.21361246993478744116E-07    0.10442701814383781311E-06
change in fa due to symmetrization =    -0.21361401092434562088E-07   -0.48353989257066132268E-07   -0.10442665576704257546E-06
change in fa due to symmetrization =     0.48353674841905558424E-07   -0.21361278523812643471E-07    0.10442696218859737201E-06
change in fa due to symmetrization =    -0.21361406199460475364E-07    0.48353932413647271460E-07    0.10442668774146568467E-06
change in fa due to symmetrization =    -0.21361406199460475364E-07    0.48353932413647271460E-07    0.10442668774146568467E-06
change in fa due to symmetrization =     0.48353602011275143013E-07    0.21361282076526322271E-07   -0.10442699860391257971E-06
change in fa due to symmetrization =    -0.10442705455915302082E-06   -0.48353657078337164421E-07   -0.21361165725153341555E-07
change in fa due to symmetrization =     0.10442686448897120499E-06   -0.21361238333739152040E-07    0.48353877346585250052E-07
change in fa due to symmetrization =    -0.48353610893059340015E-07    0.21361246993478744116E-07    0.10442701814383781311E-06
change in fa due to symmetrization =    -0.21361401092434562088E-07   -0.48353989257066132268E-07   -0.10442665576704257546E-06
change in fa due to symmetrization =     0.48353674841905558424E-07   -0.21361278523812643471E-07    0.10442696218859737201E-06
change in fa due to symmetrization =    -0.21361406199460475364E-07    0.48353932413647271460E-07    0.10442668774146568467E-06
change in fa due to symmetrization =     0.48353602011275143013E-07    0.21361282076526322271E-07   -0.10442699860391257971E-06
change in fa due to symmetrization =     0.21361398427899302987E-07   -0.48353937742717789661E-07    0.10442673215038666967E-06
change in fa due to symmetrization =     0.48353674841905558424E-07   -0.21361278523812643471E-07    0.10442696218859737201E-06
change in fa due to symmetrization =    -0.21361406199460475364E-07    0.48353932413647271460E-07    0.10442668774146568467E-06
change in fa due to symmetrization =     0.48353602011275143013E-07    0.21361282076526322271E-07   -0.10442699860391257971E-06
change in fa due to symmetrization =     0.21361398427899302987E-07   -0.48353937742717789661E-07    0.10442673215038666967E-06
change in fa due to symmetrization =    -0.48353571813208873209E-07   -0.21361275859277384370E-07   -0.10442704301283356472E-06
Max change in any component of fa due to symmetrization =     0.1044270670E-06
Max relative change =     0.2392389614E-07
change in fa due to symmetrization =    -0.48353644643839288619E-07    0.10442705455915302082E-06    0.21361178159651217356E-07
change in fa due to symmetrization =    -0.21361251656415447542E-07   -0.10442691600331954760E-06   -0.48353804515954834642E-07
change in fa due to symmetrization =     0.48353651749266646220E-07   -0.10442706521729405722E-06    0.21361172830580699156E-07
change in fa due to symmetrization =     0.21361219904036943262E-07    0.10442690800971377030E-06   -0.48353834714021104446E-07
change in fa due to symmetrization =    -0.48353639314768770419E-07   -0.10442704923008250262E-06   -0.21361164836974921855E-07
change in fa due to symmetrization =    -0.21361239888051386515E-07    0.10442684850175965039E-06    0.48353895110153644055E-07
change in fa due to symmetrization =     0.10442681475097970178E-06    0.21361440172285028893E-07   -0.48353721027183382830E-07
change in fa due to symmetrization =    -0.10442666464882677246E-06   -0.48353884452012607653E-07   -0.21361509006112555653E-07
change in fa due to symmetrization =     0.48353602011275143013E-07    0.21361282076526322271E-07   -0.10442699860391257971E-06
change in fa due to symmetrization =     0.21361398427899302987E-07   -0.48353937742717789661E-07    0.10442673215038666967E-06
change in fa due to symmetrization =    -0.48353571813208873209E-07   -0.21361275859277384370E-07   -0.10442704301283356472E-06
change in fa due to symmetrization =     0.21361398427899302987E-07   -0.48353937742717789661E-07    0.10442673215038666967E-06
change in fa due to symmetrization =    -0.48353571813208873209E-07   -0.21361275859277384370E-07   -0.10442704301283356472E-06
Max change in any component of fa due to symmetrization =     0.1044270670E-06
Max relative change =     0.2392389614E-07
change in fa due to symmetrization =     0.10442704834190408292E-06    0.48353605563988821814E-07   -0.21361173052625304081E-07
change in fa due to symmetrization =    -0.10442687514711224139E-06    0.21361252988683077092E-07    0.48353802739597995242E-07
change in fa due to symmetrization =     0.10442705278279618142E-06   -0.48353655301980325021E-07    0.21361177937606612431E-07
change in fa due to symmetrization =     0.21361284963106186296E-07    0.48353614445773018815E-07   -0.10442699771573416001E-06
change in fa due to symmetrization =    -0.48353935966360950260E-07    0.21361401758568376863E-07    0.10442672415678089237E-06
change in fa due to symmetrization =    -0.21361272084519100645E-07   -0.48353573589565712609E-07   -0.10442702524926517071E-06
change in fa due to symmetrization =     0.48353955506286183663E-07   -0.21361410640352573864E-07    0.10442667885968148767E-06
change in fa due to symmetrization =    -0.21361281188347902571E-07    0.48353667736478200823E-07    0.10442695508317001440E-06
change in fa due to symmetrization =     0.48353959058999862464E-07    0.21361412194664808339E-07   -0.10442672060406721357E-06
change in fa due to symmetrization =     0.21361251434370842617E-07   -0.48353633985698252218E-07    0.10442701192658887521E-06
change in fa due to symmetrization =    -0.48354015902418723272E-07   -0.21361403534925216263E-07   -0.10442663800347418146E-06
change in fa due to symmetrization =     0.48353637538411931018E-07    0.10442705633550986022E-06   -0.21361178603740427207E-07
change in fa due to symmetrization =     0.21361261426378064243E-07   -0.10442686626532804439E-06    0.48353820503166389244E-07
change in fa due to symmetrization =    -0.48353644643839288619E-07    0.10442705455915302082E-06    0.21361178159651217356E-07
change in fa due to symmetrization =    -0.21361251656415447542E-07   -0.10442691600331954760E-06   -0.48353804515954834642E-07
change in fa due to symmetrization =     0.48353651749266646220E-07   -0.10442706521729405722E-06    0.21361172830580699156E-07
change in fa due to symmetrization =     0.10442679254651920928E-06   -0.21361435065259115618E-07    0.48353731685324419232E-07
change in fa due to symmetrization =    -0.10442664066800944056E-06    0.48353902215581001656E-07    0.21361513669049259079E-07
change in fa due to symmetrization =    -0.10442675968391768038E-06   -0.21361437729794374718E-07   -0.48353799186884316441E-07
change in fa due to symmetrization =     0.10442664333254469966E-06    0.48353960835356701864E-07   -0.21361506341577296553E-07
change in fa due to symmetrization =    -0.10442683162636967609E-06    0.21361432400723856517E-07    0.48353719250826543430E-07
change in fa due to symmetrization =     0.10442666020793467396E-06   -0.48353930637290432060E-07    0.21361481028492335099E-07
change in fa due to symmetrization =     0.21361403312880611338E-07    0.48353944848145147262E-07   -0.10442673126220824997E-06
change in fa due to symmetrization =    -0.48353610893059340015E-07    0.21361246993478744116E-07    0.10442701814383781311E-06
Max change in any component of fa due to symmetrization =     0.1044270670E-06
Max relative change =     0.2392389614E-07
old  stress = 
   -0.8762550672E-01   -0.2572947281E-16    0.4645806309E-16
change in fa due to symmetrization =    -0.10442706699365089662E-06    0.48353635762055091618E-07    0.21361175051026748406E-07
change in fa due to symmetrization =    -0.10442692222056848550E-06   -0.21361243884854275166E-07   -0.48353777870602243638E-07
change in fa due to symmetrization =     0.10442704834190408292E-06    0.48353605563988821814E-07   -0.21361173052625304081E-07
change in fa due to symmetrization =    -0.10442687514711224139E-06    0.21361252988683077092E-07    0.48353802739597995242E-07
change in fa due to symmetrization =     0.10442705278279618142E-06   -0.48353655301980325021E-07    0.21361177937606612431E-07
change in fa due to symmetrization =     0.21361284963106186296E-07    0.48353614445773018815E-07   -0.10442699771573416001E-06
change in fa due to symmetrization =    -0.48353935966360950260E-07    0.21361401758568376863E-07    0.10442672415678089237E-06
change in fa due to symmetrization =    -0.21361272084519100645E-07   -0.48353573589565712609E-07   -0.10442702524926517071E-06
change in fa due to symmetrization =    -0.48353571813208873209E-07   -0.21361275859277384370E-07   -0.10442704301283356472E-06
Max change in any component of fa due to symmetrization =     0.1044270670E-06
Max relative change =     0.2392389614E-07
old  stress = 
   -0.8762550672E-01   -0.2572947281E-16    0.4645806309E-16
   -0.2339166187E-16   -0.8762550672E-01    0.1840772001E-16
    0.4430321127E-16    0.2046770414E-16   -0.8762550672E-01
old  stress = 
   -0.8762550672E-01   -0.2572947281E-16    0.4645806309E-16
change in fa due to symmetrization =     0.48353955506286183663E-07   -0.21361410640352573864E-07    0.10442667885968148767E-06
change in fa due to symmetrization =    -0.21361281188347902571E-07    0.48353667736478200823E-07    0.10442695508317001440E-06
stress with symmetrization = 
old  stress = 
   -0.8762550672E-01   -0.2572947281E-16    0.4645806309E-16
   -0.2339166187E-16   -0.8762550672E-01    0.1840772001E-16
    0.4430321127E-16    0.2046770414E-16   -0.8762550672E-01
stress with symmetrization = 
   -0.8762550672E-01    0.0000000000E+00    0.0000000000E+00
    0.0000000000E+00   -0.8762550672E-01    0.0000000000E+00
    0.0000000000E+00    0.0000000000E+00   -0.8762550672E-01
change in components of stress due to symmetrization = 
   -0.2095545959E-14    0.2572947281E-16   -0.4645806309E-16
change in fa due to symmetrization =     0.21361219904036943262E-07    0.10442690800971377030E-06   -0.48353834714021104446E-07
change in fa due to symmetrization =    -0.48353639314768770419E-07   -0.10442704923008250262E-06   -0.21361164836974921855E-07
change in fa due to symmetrization =    -0.21361239888051386515E-07    0.10442684850175965039E-06    0.48353895110153644055E-07
change in fa due to symmetrization =     0.10442681475097970178E-06    0.21361440172285028893E-07   -0.48353721027183382830E-07
change in fa due to symmetrization =    -0.10442666464882677246E-06   -0.48353884452012607653E-07   -0.21361509006112555653E-07
change in fa due to symmetrization =     0.21361219904036943262E-07    0.10442690800971377030E-06   -0.48353834714021104446E-07
change in fa due to symmetrization =    -0.48353639314768770419E-07   -0.10442704923008250262E-06   -0.21361164836974921855E-07
change in fa due to symmetrization =    -0.21361239888051386515E-07    0.10442684850175965039E-06    0.48353895110153644055E-07
change in fa due to symmetrization =     0.10442681475097970178E-06    0.21361440172285028893E-07   -0.48353721027183382830E-07
change in fa due to symmetrization =    -0.10442666464882677246E-06   -0.48353884452012607653E-07   -0.21361509006112555653E-07
change in fa due to symmetrization =     0.10442679254651920928E-06   -0.21361435065259115618E-07    0.48353731685324419232E-07
change in fa due to symmetrization =    -0.10442664066800944056E-06    0.48353902215581001656E-07    0.21361513669049259079E-07
change in fa due to symmetrization =    -0.10442675968391768038E-06   -0.21361437729794374718E-07   -0.48353799186884316441E-07
change in fa due to symmetrization =    -0.21361401092434562088E-07   -0.48353989257066132268E-07   -0.10442665576704257546E-06
change in fa due to symmetrization =     0.48353674841905558424E-07   -0.21361278523812643471E-07    0.10442696218859737201E-06
change in fa due to symmetrization =    -0.21361406199460475364E-07    0.48353932413647271460E-07    0.10442668774146568467E-06
change in fa due to symmetrization =     0.48353602011275143013E-07    0.21361282076526322271E-07   -0.10442699860391257971E-06
change in fa due to symmetrization =     0.21361398427899302987E-07   -0.48353937742717789661E-07    0.10442673215038666967E-06
change in fa due to symmetrization =    -0.48353571813208873209E-07   -0.21361275859277384370E-07   -0.10442704301283356472E-06
Max change in any component of fa due to symmetrization =     0.1044270670E-06
Max relative change =     0.2392389614E-07
change in fa due to symmetrization =     0.48353959058999862464E-07    0.21361412194664808339E-07   -0.10442672060406721357E-06
change in fa due to symmetrization =     0.21361251434370842617E-07   -0.48353633985698252218E-07    0.10442701192658887521E-06
change in fa due to symmetrization =    -0.48354015902418723272E-07   -0.21361403534925216263E-07   -0.10442663800347418146E-06
change in fa due to symmetrization =     0.48353637538411931018E-07    0.10442705633550986022E-06   -0.21361178603740427207E-07
   -0.8762550672E-01    0.0000000000E+00    0.0000000000E+00
    0.0000000000E+00   -0.8762550672E-01    0.0000000000E+00
    0.0000000000E+00    0.0000000000E+00   -0.8762550672E-01
change in components of stress due to symmetrization = 
    0.2339166187E-16    0.3469446952E-15   -0.1840772001E-16
   -0.4430321127E-16   -0.2046770414E-16    0.1748601264E-14
Max change in any component of stress due to symmetrization =     0.2095545959E-14
change in fa due to symmetrization =     0.10442679254651920928E-06   -0.21361435065259115618E-07    0.48353731685324419232E-07
change in fa due to symmetrization =    -0.10442664066800944056E-06    0.48353902215581001656E-07    0.21361513669049259079E-07
change in fa due to symmetrization =    -0.10442675968391768038E-06   -0.21361437729794374718E-07   -0.48353799186884316441E-07
change in fa due to symmetrization =     0.10442664333254469966E-06    0.48353960835356701864E-07   -0.21361506341577296553E-07
change in fa due to symmetrization =    -0.10442683162636967609E-06    0.21361432400723856517E-07    0.48353719250826543430E-07
change in fa due to symmetrization =     0.10442664333254469966E-06    0.48353960835356701864E-07   -0.21361506341577296553E-07
change in fa due to symmetrization =    -0.10442683162636967609E-06    0.21361432400723856517E-07    0.48353719250826543430E-07
change in fa due to symmetrization =     0.10442666020793467396E-06   -0.48353930637290432060E-07    0.21361481028492335099E-07
change in fa due to symmetrization =     0.21361403312880611338E-07    0.48353944848145147262E-07   -0.10442673126220824997E-06
change in fa due to symmetrization =    -0.48353610893059340015E-07    0.21361246993478744116E-07    0.10442701814383781311E-06
   -0.2339166187E-16   -0.8762550672E-01    0.1840772001E-16
    0.4430321127E-16    0.2046770414E-16   -0.8762550672E-01
stress with symmetrization = 
   -0.8762550672E-01    0.0000000000E+00    0.0000000000E+00
    0.0000000000E+00   -0.8762550672E-01    0.0000000000E+00
    0.0000000000E+00    0.0000000000E+00   -0.8762550672E-01
change in components of stress due to symmetrization = 
   -0.2095545959E-14    0.2572947281E-16   -0.4645806309E-16
    0.2339166187E-16    0.3469446952E-15   -0.1840772001E-16
   -0.4430321127E-16   -0.2046770414E-16    0.1748601264E-14
Max change in any component of stress due to symmetrization =     0.2095545959E-14
change in fa due to symmetrization =    -0.21361401092434562088E-07   -0.48353989257066132268E-07   -0.10442665576704257546E-06
change in fa due to symmetrization =     0.48353674841905558424E-07   -0.21361278523812643471E-07    0.10442696218859737201E-06
old  stress = 
   -0.8762550672E-01   -0.2572947281E-16    0.4645806309E-16
   -0.2339166187E-16   -0.8762550672E-01    0.1840772001E-16
change in fa due to symmetrization =     0.21361261426378064243E-07   -0.10442686626532804439E-06    0.48353820503166389244E-07
change in fa due to symmetrization =    -0.48353644643839288619E-07    0.10442705455915302082E-06    0.21361178159651217356E-07
change in fa due to symmetrization =    -0.21361251656415447542E-07   -0.10442691600331954760E-06   -0.48353804515954834642E-07
change in fa due to symmetrization =     0.48353651749266646220E-07   -0.10442706521729405722E-06    0.21361172830580699156E-07
change in fa due to symmetrization =     0.21361219904036943262E-07    0.10442690800971377030E-06   -0.48353834714021104446E-07
change in fa due to symmetrization =    -0.48353639314768770419E-07   -0.10442704923008250262E-06   -0.21361164836974921855E-07
change in fa due to symmetrization =    -0.21361239888051386515E-07    0.10442684850175965039E-06    0.48353895110153644055E-07
change in fa due to symmetrization =     0.10442681475097970178E-06    0.21361440172285028893E-07   -0.48353721027183382830E-07
   -0.2095545959E-14    0.2572947281E-16   -0.4645806309E-16
    0.2339166187E-16    0.3469446952E-15   -0.1840772001E-16
   -0.4430321127E-16   -0.2046770414E-16    0.1748601264E-14
Max change in any component of stress due to symmetrization =     0.2095545959E-14
change in fa due to symmetrization =     0.10442666020793467396E-06   -0.48353930637290432060E-07    0.21361481028492335099E-07
change in fa due to symmetrization =     0.21361403312880611338E-07    0.48353944848145147262E-07   -0.10442673126220824997E-06
change in fa due to symmetrization =    -0.21361406199460475364E-07    0.48353932413647271460E-07    0.10442668774146568467E-06
change in fa due to symmetrization =     0.48353602011275143013E-07    0.21361282076526322271E-07   -0.10442699860391257971E-06
    0.4430321127E-16    0.2046770414E-16   -0.8762550672E-01
stress with symmetrization = 
change in fa due to symmetrization =    -0.10442666464882677246E-06   -0.48353884452012607653E-07   -0.21361509006112555653E-07
change in fa due to symmetrization =     0.10442679254651920928E-06   -0.21361435065259115618E-07    0.48353731685324419232E-07
change in fa due to symmetrization =    -0.10442664066800944056E-06    0.48353902215581001656E-07    0.21361513669049259079E-07
   -0.8762550672E-01    0.0000000000E+00    0.0000000000E+00
    0.0000000000E+00   -0.8762550672E-01    0.0000000000E+00
    0.0000000000E+00    0.0000000000E+00   -0.8762550672E-01
change in components of stress due to symmetrization = 
   -0.2095545959E-14    0.2572947281E-16   -0.4645806309E-16
change in fa due to symmetrization =    -0.10442675968391768038E-06   -0.21361437729794374718E-07   -0.48353799186884316441E-07
change in fa due to symmetrization =     0.10442664333254469966E-06    0.48353960835356701864E-07   -0.21361506341577296553E-07
change in fa due to symmetrization =    -0.10442683162636967609E-06    0.21361432400723856517E-07    0.48353719250826543430E-07
change in fa due to symmetrization =     0.10442666020793467396E-06   -0.48353930637290432060E-07    0.21361481028492335099E-07
change in fa due to symmetrization =    -0.48353610893059340015E-07    0.21361246993478744116E-07    0.10442701814383781311E-06
change in fa due to symmetrization =    -0.21361401092434562088E-07   -0.48353989257066132268E-07   -0.10442665576704257546E-06
change in fa due to symmetrization =     0.48353674841905558424E-07   -0.21361278523812643471E-07    0.10442696218859737201E-06
change in fa due to symmetrization =    -0.21361406199460475364E-07    0.48353932413647271460E-07    0.10442668774146568467E-06
change in fa due to symmetrization =     0.48353602011275143013E-07    0.21361282076526322271E-07   -0.10442699860391257971E-06
change in fa due to symmetrization =     0.21361398427899302987E-07   -0.48353937742717789661E-07    0.10442673215038666967E-06
change in fa due to symmetrization =    -0.48353571813208873209E-07   -0.21361275859277384370E-07   -0.10442704301283356472E-06
Max change in any component of fa due to symmetrization =     0.1044270670E-06
Max relative change =     0.2392389614E-07
change in fa due to symmetrization =     0.21361403312880611338E-07    0.48353944848145147262E-07   -0.10442673126220824997E-06
change in fa due to symmetrization =    -0.48353610893059340015E-07    0.21361246993478744116E-07    0.10442701814383781311E-06
change in fa due to symmetrization =    -0.21361401092434562088E-07   -0.48353989257066132268E-07   -0.10442665576704257546E-06
change in fa due to symmetrization =     0.21361398427899302987E-07   -0.48353937742717789661E-07    0.10442673215038666967E-06
change in fa due to symmetrization =    -0.48353571813208873209E-07   -0.21361275859277384370E-07   -0.10442704301283356472E-06
Max change in any component of fa due to symmetrization =     0.1044270670E-06
    0.2339166187E-16    0.3469446952E-15   -0.1840772001E-16
   -0.4430321127E-16   -0.2046770414E-16    0.1748601264E-14
Max change in any component of stress due to symmetrization =     0.2095545959E-14
old  stress = 
   -0.8762550672E-01   -0.2572947281E-16    0.4645806309E-16
change in fa due to symmetrization =     0.48353674841905558424E-07   -0.21361278523812643471E-07    0.10442696218859737201E-06
change in fa due to symmetrization =    -0.21361406199460475364E-07    0.48353932413647271460E-07    0.10442668774146568467E-06
change in fa due to symmetrization =     0.48353602011275143013E-07    0.21361282076526322271E-07   -0.10442699860391257971E-06
Max relative change =     0.2392389614E-07
old  stress = 
   -0.2339166187E-16   -0.8762550672E-01    0.1840772001E-16
    0.4430321127E-16    0.2046770414E-16   -0.8762550672E-01
stress with symmetrization = 
   -0.8762550672E-01    0.0000000000E+00    0.0000000000E+00
change in fa due to symmetrization =     0.21361398427899302987E-07   -0.48353937742717789661E-07    0.10442673215038666967E-06
change in fa due to symmetrization =    -0.48353571813208873209E-07   -0.21361275859277384370E-07   -0.10442704301283356472E-06
Max change in any component of fa due to symmetrization =     0.1044270670E-06
Max relative change =     0.2392389614E-07
   -0.8762550672E-01   -0.2572947281E-16    0.4645806309E-16
   -0.2339166187E-16   -0.8762550672E-01    0.1840772001E-16
    0.4430321127E-16    0.2046770414E-16   -0.8762550672E-01
stress with symmetrization = 
old  stress = 
   -0.8762550672E-01   -0.2572947281E-16    0.4645806309E-16
    0.0000000000E+00   -0.8762550672E-01    0.0000000000E+00
    0.0000000000E+00    0.0000000000E+00   -0.8762550672E-01
change in components of stress due to symmetrization = 
   -0.8762550672E-01    0.0000000000E+00    0.0000000000E+00
    0.0000000000E+00   -0.8762550672E-01    0.0000000000E+00
    0.0000000000E+00    0.0000000000E+00   -0.8762550672E-01
change in components of stress due to symmetrization = 
   -0.2095545959E-14    0.2572947281E-16   -0.4645806309E-16
    0.2339166187E-16    0.3469446952E-15   -0.1840772001E-16
   -0.4430321127E-16   -0.2046770414E-16    0.1748601264E-14
Max change in any component of stress due to symmetrization =     0.2095545959E-14
   -0.2339166187E-16   -0.8762550672E-01    0.1840772001E-16
    0.4430321127E-16    0.2046770414E-16   -0.8762550672E-01
stress with symmetrization = 
   -0.2095545959E-14    0.2572947281E-16   -0.4645806309E-16
    0.2339166187E-16    0.3469446952E-15   -0.1840772001E-16
   -0.4430321127E-16   -0.2046770414E-16    0.1748601264E-14
Max change in any component of stress due to symmetrization =     0.2095545959E-14
   -0.8762550672E-01    0.0000000000E+00    0.0000000000E+00
    0.0000000000E+00   -0.8762550672E-01    0.0000000000E+00
    0.0000000000E+00    0.0000000000E+00   -0.8762550672E-01
change in components of stress due to symmetrization = 
   -0.2095545959E-14    0.2572947281E-16   -0.4645806309E-16
    0.2339166187E-16    0.3469446952E-15   -0.1840772001E-16
   -0.4430321127E-16   -0.2046770414E-16    0.1748601264E-14
Max change in any component of stress due to symmetrization =     0.2095545959E-14
   -0.2339166187E-16   -0.8762550672E-01    0.1840772001E-16
    0.4430321127E-16    0.2046770414E-16   -0.8762550672E-01
stress with symmetrization = 
   -0.8762550672E-01    0.0000000000E+00    0.0000000000E+00
    0.0000000000E+00   -0.8762550672E-01    0.0000000000E+00
    0.0000000000E+00    0.0000000000E+00   -0.8762550672E-01
change in components of stress due to symmetrization = 
   -0.2095545959E-14    0.2572947281E-16   -0.4645806309E-16
    0.2339166187E-16    0.3469446952E-15   -0.1840772001E-16
   -0.4430321127E-16   -0.2046770414E-16    0.1748601264E-14
Max change in any component of stress due to symmetrization =     0.2095545959E-14

siesta: Atomic forces (eV/Ang):
----------------------------------------
   Tot    0.000000    0.000000   -0.000000
----------------------------------------
   Max  241.102099
   Res  154.978006    sqrt( Sum f_i^2 / 3N )
----------------------------------------
   Max  241.102099    constrained

Stress-tensor-Voigt (kbar):   -12890.41   -12890.41   -12890.41        0.00        0.00        0.00
(Free)E + p*V (eV/cell)     1200.5132
Target enthalpy (eV/cell)      170.6922

siesta: Program's energy decomposition (eV):
siesta: Ebs     =         0.000000
siesta: Eions   =       945.951434
siesta: Ena     =      1797.707957
siesta: Ekin    =       606.891014
siesta: Enl     =      -661.459166
siesta: Eso     =         0.000000
siesta: Eldau   =         0.000000
siesta: DEna    =         0.000022
siesta: DUscf   =         0.000000
siesta: DUext   =         0.000000
siesta: Enegf   =         0.000000
siesta: Exc     =      -626.496152
siesta: eta*DQ  =         0.000000
siesta: Emadel  =         0.000000
siesta: Emeta   =         0.000000
siesta: Emolmec =         0.000000
siesta: Ekinion =         0.000000
siesta: Eharris =         0.000000
siesta: Etot    =       170.692241
siesta: FreeEng =       170.692241

siesta: Final energy (eV):
siesta:  Band Struct. =       0.000000
siesta:       Kinetic =     606.891014
siesta:       Hartree =    1436.502023
siesta:       Eldau   =       0.000000
siesta:       Eso     =       0.000000
siesta:    Ext. field =       0.000000
siesta:       Enegf   =       0.000000
siesta:   Exch.-corr. =    -626.496152
siesta:  Ion-electron =   -5552.853962
siesta:       Ion-ion =    4306.649318
siesta:       Ekinion =       0.000000
siesta:         Total =     170.692241
siesta:         Fermi =       0.000000

siesta: Atomic forces (eV/Ang):
siesta:      1  241.102099 -112.228791  -36.455766
siesta:      2  -36.455766  241.102099 -112.228791
siesta:      3 -241.102099  112.228791  -36.455766
siesta:      4 -241.102099 -112.228791   36.455766
siesta:      5 -112.228791  241.102099   36.455766
siesta:      6 -241.102099  112.228791   36.455766
siesta:      7 -112.228791  -36.455766  241.102099
siesta:      8  -36.455766 -241.102099  112.228791
siesta:      9   36.455766 -241.102099 -112.228791
siesta:     10   36.455766 -112.228791  241.102099
siesta:     11   36.455766 -241.102099  112.228791
siesta:     12  241.102099  112.228791   36.455766
siesta:     13  112.228791 -241.102099   36.455766
siesta:     14  241.102099 -112.228791   36.455766
siesta:     15   36.455766  241.102099  112.228791
siesta:     16  112.228791  241.102099  -36.455766
siesta:     17  241.102099  112.228791  -36.455766
siesta:     18  241.102099  -36.455766  112.228791
siesta:     19 -112.228791 -241.102099  -36.455766
siesta:     20  112.228791 -241.102099  -36.455766
siesta:     21  112.228791  -36.455766 -241.102099
siesta:     22 -112.228791   36.455766 -241.102099
siesta:     23  241.102099   36.455766 -112.228791
siesta:     24  112.228791   36.455766 -241.102099
siesta:     25   36.455766  112.228791 -241.102099
siesta:     26   36.455766  241.102099 -112.228791
siesta:     27  112.228791   36.455766  241.102099
siesta:     28  -36.455766  112.228791  241.102099
siesta:     29  -36.455766  241.102099  112.228791
siesta:     30  -36.455766 -112.228791 -241.102099
siesta:     31  -36.455766  112.228791 -241.102099
siesta:     32 -241.102099 -112.228791  -36.455766
siesta:     33 -241.102099   36.455766  112.228791
siesta:     34 -112.228791  241.102099  -36.455766
siesta:     35  -36.455766 -241.102099 -112.228791
siesta:     36 -241.102099  -36.455766 -112.228791
siesta:     37 -112.228791 -241.102099   36.455766
siesta:     38 -241.102099   36.455766 -112.228791
siesta:     39  112.228791  241.102099   36.455766
siesta:     40 -112.228791   36.455766  241.102099
siesta:     41  112.228791  -36.455766  241.102099
siesta:     42 -241.102099  -36.455766  112.228791
siesta:     43  -36.455766 -112.228791  241.102099
siesta:     44 -112.228791  -36.455766 -241.102099
siesta:     45   36.455766 -112.228791 -241.102099
siesta:     46   36.455766  112.228791  241.102099
siesta:     47  241.102099  -36.455766 -112.228791
siesta:     48  241.102099   36.455766  112.228791
siesta: ----------------------------------------
siesta:    Tot    0.000000    0.000000   -0.000000

siesta: Stress tensor (static) (eV/Ang**3):
siesta:    -8.045476    0.000000    0.000000
siesta:     0.000000   -8.045476    0.000000
siesta:     0.000000    0.000000   -8.045476

siesta: Cell volume =        128.000000 Ang**3

siesta: Pressure (static):
siesta:                Solid            Molecule  Units
siesta:           0.08762551         -0.00593831  Ry/Bohr**3
siesta:           8.04547603         -0.54523515  eV/Ang**3
siesta:       12890.41304321       -873.57246081  kBar
(Free)E+ p_basis*V_orbitals  =         181.195253
(Free)Eharris+ p_basis*V_orbitals  =          10.503012

>> End of run:   2-APR-2019  17:13:55
Job completed
